,id,fermi level,fermi width,e_form,gap is direct,mu_b,formula,vbm,cbm,gap gllbsc
3259,perov_3259.cif,0.10689495255100001,0.0018374654734000001,2.12,True,0.3798751795758052,BeInO3,5.786134710379294,5.786134710379294,0.0
3260,perov_3260.cif,0.274422141239,0.0018374654734000001,0.96,False,-0.00037361385659996367,SbSnO2N,6.406627671529746,5.8366276715297465,0.6
3261,perov_3261.cif,0.19477007937899998,0.0036749309468000002,1.0,True,0.9470400941299462,AuZrOFN,6.540507720962831,6.540507720962831,0.0
3262,perov_3262.cif,0.250345415307,0.0018374654734000001,1.82,True,-0.023163575328335087,IrCuO2N,6.292000186982982,6.292000186982982,0.0
3263,perov_3263.cif,0.19869974204100002,0.0018374654734000001,0.48,True,-1.769749641543209,CoNbO2S,5.7092854448996455,5.7092854448996455,0.0
3264,perov_3264.cif,0.225868387857,0.0036749309468000002,1.32,True,0.9467527895756548,CuIrO2F,6.760393734653205,6.760393734653205,0.0
3265,perov_3265.cif,0.345833401364,0.0018374654734000001,0.84,True,-2.0336581979201376,VSiO2N,5.885817112835128,5.885817112835128,0.0
3266,perov_3266.cif,0.148883851752,0.0036749309468000002,1.42,True,0.3019594456845205,GeLaOFN,6.0215594472799605,6.0215594472799605,0.0
3267,perov_3267.cif,0.268085467076,0.0018374654734000001,0.74,True,0.2448002091354979,PbMoN3,5.664003175743552,5.664003175743552,0.0
3268,perov_3268.cif,0.250716034898,0.0018374654734000001,1.34,True,-1.6473873319711167e-05,IrPdO2S,6.090547309647532,6.090547309647532,0.0
3269,perov_3269.cif,0.157774305621,0.0036749309468000002,0.54,True,0.991790032125646,BaSrO2F,5.012346597962577,5.012346597962577,0.0
3270,perov_3270.cif,0.286403574947,0.0018374654734000001,1.28,True,2.5643624241185097,PbCoON2,5.8164281944235325,5.8164281944235325,0.0
3271,perov_3271.cif,0.290082840479,0.0018374654734000001,0.48,True,1.0092878326805526,PbCrO2N,5.690145620790875,5.690145620790875,0.0
3272,perov_3272.cif,0.067163027991,0.0036749309468000002,2.32,True,-2.2699429325141482e-07,BPbO2F,6.290562984293199,6.290562984293199,0.0
3273,perov_3273.cif,0.210414650416,0.0018374654734000001,1.3,True,-0.003155679452319222,RuLiO2S,5.442918974637037,5.442918974637037,0.0
3274,perov_3274.cif,0.316586601172,0.0018374654734000001,0.34,True,0.7560668449569511,ScZrO3,5.534094308186758,5.534094308186758,0.0
3275,perov_3275.cif,0.253663227088,0.0018374654734000001,1.04,True,2.032459165754954,CsGeO2N,5.292553562867063,5.292553562867063,0.0
3276,perov_3276.cif,0.22924337321899999,0.0018374654734000001,2.26,True,0.029925228833448617,BOsO3,6.172061089965278,6.172061089965278,0.0
3277,perov_3277.cif,0.2485875703,0.0018374654734000001,0.48,True,0.7718795610386311,TiNbON2,5.596913266783591,5.596913266783591,0.0
3278,perov_3278.cif,0.07669112356110001,0.0018374654734000001,3.68,True,6.999999999573946,GaKN3,4.951237002827976,4.951237002827976,0.0
3279,perov_3279.cif,0.23435085309700002,0.0018374654734000001,1.94,True,0.0006917850952490312,SnCaN3,5.1534595763380135,5.1534595763380135,0.0
3280,perov_3280.cif,0.0290575778471,0.0018374654734000001,1.4,True,1.7979562496775665,NaMgO2N,5.355500919345747,5.355500919345747,0.0
3281,perov_3281.cif,0.213129603432,0.0018374654734000001,1.8,True,2.029001948142051,GeBiN3,5.918894202486216,5.918894202486216,0.0
3282,perov_3282.cif,0.323495243684,0.0018374654734000001,0.46,True,0.1727943521655071,SbZrO3,5.962736395107224,5.962736395107224,0.0
3283,perov_3283.cif,0.206908438142,0.0036749309468000002,1.02,True,2.456349344743329,AlCrO2F,5.883255789300642,5.883255789300642,0.0
3284,perov_3284.cif,0.268281418306,0.0036749309468000002,0.8,True,1.5164870432021438,IrTiO2F,6.416234184994942,6.416234184994942,0.0
3285,perov_3285.cif,0.10947336176400001,0.0036749309468000002,1.14,True,-7.832843250527463e-15,ZnPbO2F,6.336800854478657,6.336800854478657,0.0
3286,perov_3286.cif,0.158273343963,0.0018374654734000001,0.7,True,-0.14086502416112362,NaWON2,5.490757543245643,5.490757543245643,0.0
3287,perov_3287.cif,0.376895977931,0.0036749309468000002,1.58,True,0.3601252082755869,HfNiO2F,6.1581398509486025,6.1581398509486025,0.0
3288,perov_3288.cif,0.332937842575,0.0018374654734000001,0.44,True,1.6901207837681969,LaHfN3,5.241709048571304,5.241709048571304,0.0
3289,perov_3289.cif,0.35675537843000005,0.0018374654734000001,0.88,True,-0.16072211933150762,YSnO3,5.6692918342761995,5.6692918342761995,0.0
3290,perov_3290.cif,0.43311077171400003,0.0036749309468000002,0.48,True,0.0,LaCrO2F,5.8118997291979575,5.8118997291979575,0.0
3291,perov_3291.cif,0.32003933493500003,0.0018374654734000001,0.94,True,1.0513688790799236,MoMnON2,5.653198941454253,5.653198941454253,0.0
3292,perov_3292.cif,0.33597531697300004,0.0018374654734000001,1.46,True,5.483041984647371,WFeO3,5.976855108233934,5.976855108233934,0.0
3293,perov_3293.cif,0.222748673752,0.0018374654734000001,1.5,True,-0.4333451301771773,OsInO2N,5.74326668898546,5.74326668898546,0.0
3294,perov_3294.cif,0.271068801599,0.0018374654734000001,1.04,True,-0.00018581890791047342,TaGaON2,5.540634814690017,5.540634814690017,0.0
3295,perov_3295.cif,0.23042951964299999,0.0018374654734000001,1.78,True,-0.0004538798041014745,ScAuO2S,5.840641143012606,5.840641143012606,0.0
3296,perov_3296.cif,0.227563025817,0.0018374654734000001,1.52,True,2.764902184251304,MgCoON2,5.7739458186327335,5.7739458186327335,0.0
3297,perov_3297.cif,0.24371133487100002,0.0018374654734000001,0.56,True,0.34661153742725936,MgCrO2N,5.648585595207035,5.648585595207035,0.0
3298,perov_3298.cif,0.265831326042,0.0036749309468000002,0.42,True,0.4924583695427494,InWO2F,6.041864907034656,6.041864907034656,0.0
3299,perov_3299.cif,0.279112022739,0.0018374654734000001,1.46,True,0.040033934864474936,TiTiN3,5.3957060824839616,5.3957060824839616,0.0
3300,perov_3300.cif,0.21744379884,0.0018374654734000001,-0.58,False,-0.0003376443101349811,RbTaO3,7.4130916671045295,3.14309166710453,4.3
3301,perov_3301.cif,0.07318170407630001,0.0018374654734000001,2.64,True,1.999986685956323,BLaO3,5.604925349902733,5.604925349902733,0.0
3302,perov_3302.cif,0.244103791868,0.0018374654734000001,1.36,True,-0.009579195375514856,GePtO2N,6.378924736286888,6.378924736286888,0.0
3303,perov_3303.cif,0.287788748634,0.0018374654734000001,0.56,True,4.445168949911946,MoTaO3,5.845836687064235,5.845836687064235,0.0
3304,perov_3304.cif,0.259550010779,0.0018374654734000001,1.86,True,0.8692297917495752,YPbN3,5.440874435731544,5.440874435731544,0.0
3305,perov_3305.cif,0.18046760823199998,0.0036749309468000002,1.0,True,0.5944197473784029,KSbOFN,5.821936231383494,5.821936231383494,0.0
3306,perov_3306.cif,0.18302477098499997,0.0018374654734000001,1.34,True,0.7085412202773398,PtRhO2S,6.1001539795062145,6.1001539795062145,0.0
3307,perov_3307.cif,0.220134341701,0.0018374654734000001,1.62,True,0.014420639592994888,AgRuN3,5.98466359596462,5.98466359596462,0.0
3308,perov_3308.cif,0.22547428954100002,0.0018374654734000001,1.48,True,-0.7236549885473488,TiPdO3,5.798461887261696,5.798461887261696,0.0
3309,perov_3309.cif,0.24640119876999997,0.0018374654734000001,0.64,True,1.7485083098678356,NbNbO2S,5.7272999387513615,5.527299938751361,0.2
3310,perov_3310.cif,0.266929855799,0.0036749309468000002,0.94,False,1.400866117966646e-15,MgBO2F,8.144617594493555,4.344617594493556,3.8
3311,perov_3311.cif,0.341122184868,0.0018374654734000001,1.42,True,0.02759944700355988,TeNiO2N,6.30419846418542,6.30419846418542,0.0
3312,perov_3312.cif,0.27107591917199997,0.0018374654734000001,0.78,True,0.4859321393162954,VFeO3,5.741729025355713,5.741729025355713,0.0
3313,perov_3313.cif,0.262685233534,0.0018374654734000001,1.04,True,-0.011219650046530786,WScO2N,5.707746827284947,5.707746827284947,0.0
3314,perov_3314.cif,0.310299455308,0.0036749309468000002,1.4,True,-6.474202109898803e-15,YRuO2F,6.103919195676308,6.103919195676308,0.0
3315,perov_3315.cif,0.13507472265999998,0.0018374654734000001,1.94,True,0.0,CsAgO2N,5.2552125940608425,5.2552125940608425,0.0
3316,perov_3316.cif,0.166273459991,0.0036749309468000002,1.34,True,1.9973251212348389,RbAlOFN,5.32476200393055,5.32476200393055,0.0
3317,perov_3317.cif,0.205105520898,0.0018374654734000001,4.4,True,0.0,OsSrN3,5.18786202843978,5.18786202843978,0.0
3318,perov_3318.cif,0.23459749130399998,0.0018374654734000001,1.8,True,0.02008937505786434,SbTlO2N,6.4281749677376325,6.4281749677376325,0.0
3319,perov_3319.cif,0.348147629038,0.0018374654734000001,0.54,True,-0.00038030509886866087,SnReON2,5.851878833407235,5.851878833407235,0.0
3320,perov_3320.cif,0.040113647026199996,0.0036749309468000002,0.88,True,0.0,RbMgO2F,5.531686528796784,5.531686528796784,0.0
3321,perov_3321.cif,0.191439744798,0.0018374654734000001,0.84,True,1.9873803416364517,SrInO2N,4.80289630800598,4.80289630800598,0.0
3322,perov_3322.cif,-0.0343416523257,0.0036749309468000002,2.66,True,0.0,KRbOFN,5.032250688942541,5.032250688942541,0.0
3323,perov_3323.cif,0.436090611294,0.0018374654734000001,1.14,True,-0.0045341530776919145,ZrBON2,5.7369953087337455,5.7369953087337455,0.0
3324,perov_3324.cif,0.24785865999899998,0.0018374654734000001,2.18,True,0.02309598183940409,CuCaN3,5.1959000168131695,5.1959000168131695,0.0
3325,perov_3325.cif,0.16458117688100002,0.0018374654734000001,1.34,True,1.5062078974429856,GeBeO2S,6.0265234356034885,6.0265234356034885,0.0
3326,perov_3326.cif,0.185071936714,0.0036749309468000002,1.94,True,0.0,PtZnOFN,6.760815191346411,6.760815191346411,0.0
3327,perov_3327.cif,0.163998543531,0.0018374654734000001,-0.14,True,3.8475345753852274e-07,KVO3,5.177266955229805,5.177266955229805,0.0
3328,perov_3328.cif,0.120151475932,0.0018374654734000001,1.66,True,-0.000672112280456666,LiZrON2,5.344490819923537,5.344490819923537,0.0
3329,perov_3329.cif,0.27972214432500003,0.0018374654734000001,0.06,True,4.924294833409911,MnTaO3,5.790850392851813,5.790850392851813,0.0
3330,perov_3330.cif,0.203166507867,0.0018374654734000001,2.52,True,3.4950519050799467,CdTlN3,6.224663239673201,6.224663239673201,0.0
3331,perov_3331.cif,0.0882987070172,0.0036749309468000002,2.7,True,0.0,VSrOFN,5.279861405425537,5.279861405425537,0.0
3332,perov_3332.cif,0.054347491384399996,0.0018374654734000001,2.42,True,4.000001533801793,AuNaO3,5.878697595704397,5.878697595704397,0.0
3333,perov_3333.cif,0.178939576939,0.0018374654734000001,1.08,True,-0.0004833402019275869,CaCdO2S,5.09613998236343,5.09613998236343,0.0
3334,perov_3334.cif,0.253412468578,0.0018374654734000001,1.74,True,0.00035352675071820267,HfCdON2,5.699075108745268,5.699075108745268,0.0
3335,perov_3335.cif,0.24520740684,0.0036749309468000002,0.9,True,-4.0812040734327477e-16,ZnGeOFN,6.506981797464782,6.506981797464782,0.0
3336,perov_3336.cif,0.154622132776,0.0036749309468000002,2.26,True,2.2950982575027865,BFeOFN,6.300176094454309,6.300176094454309,0.0
3337,perov_3337.cif,0.07729517191489998,0.0018374654734000001,1.26,True,2.9999107466238057,LiGaO2N,5.245273853313413,5.245273853313413,0.0
3338,perov_3338.cif,0.147039402756,0.0036749309468000002,1.82,True,0.0,IrYO2F,6.316471259459249,6.316471259459249,0.0
3339,perov_3339.cif,0.22351829925099997,0.0018374654734000001,0.64,True,0.08403694143318319,NiWO2S,5.845977479822443,5.845977479822443,0.0
3340,perov_3340.cif,0.322803382157,0.0036749309468000002,1.18,True,1.1523822770439982,TaMnO2F,6.178364062676296,6.178364062676296,0.0
3341,perov_3341.cif,0.229285125011,0.0018374654734000001,0.0,True,0.29300065484287785,LiWO3,5.629642545040162,5.629642545040162,0.0
3342,perov_3342.cif,0.23376570924600001,0.0018374654734000001,0.78,True,0.3493092516723433,AlNbO2N,5.555688371555599,5.555688371555599,0.0
3343,perov_3343.cif,0.29267527082600003,0.0036749309468000002,1.26,True,0.0,TiCoO2F,6.144204280049716,6.144204280049716,0.0
3344,perov_3344.cif,0.125792560078,0.0036749309468000002,3.52,True,0.0,ReBaOFN,5.720208469046442,5.720208469046442,0.0
3345,perov_3345.cif,0.264562835866,0.0018374654734000001,1.1,True,0.00944520249545988,SbNbN3,5.949507173483312,5.949507173483312,0.0
3346,perov_3346.cif,0.253394140508,0.0036749309468000002,0.88,True,3.999840961080938,MoGaO2F,5.935414501678611,5.935414501678611,0.0
3347,perov_3347.cif,0.210991532642,0.0018374654734000001,1.58,True,2.027029239918537,TlZnO2N,6.31846150248958,6.31846150248958,0.0
3348,perov_3348.cif,0.205557855484,0.0018374654734000001,1.62,True,-0.23535929957821194,YCsO3,4.953634339657629,4.953634339657629,0.0
3349,perov_3349.cif,0.303711703532,0.0018374654734000001,0.56,True,0.0015494937978033365,SnSbO3,6.164800466842487,6.164800466842487,0.0
3350,perov_3350.cif,0.272699594755,0.0018374654734000001,1.6,True,0.0004981362011093895,TiCuN3,5.685125658187541,5.685125658187541,0.0
3351,perov_3351.cif,0.20437456510699997,0.0036749309468000002,1.54,True,4.4745149598497385,RuRhO2F,6.4795423129054885,6.4795423129054885,0.0
3352,perov_3352.cif,0.241206323774,0.0036749309468000002,1.54,True,-2.0402765711582453e-15,HfTeO2F,6.436851368444223,6.436851368444223,0.0
3353,perov_3353.cif,0.286209441259,0.0036749309468000002,0.34,True,4.3378671520599717e-05,PbNbO2F,6.20311817453552,6.20311817453552,0.0
3354,perov_3354.cif,0.20556927055399998,0.0036749309468000002,0.84,True,3.7916531963794095e-15,PbBiOFN,6.193188632168733,6.193188632168733,0.0
3355,perov_3355.cif,0.16074389963,0.0018374654734000001,2.12,True,-2.0082889903630616,GeMgON2,5.852353884171754,5.852353884171754,0.0
3356,perov_3356.cif,0.297077074329,0.0018374654734000001,0.76,True,-0.006439862748709268,TaZrO2N,5.72534841501034,5.72534841501034,0.0
3357,perov_3357.cif,0.207562161479,0.0036749309468000002,1.04,True,3.4706834684788257,ZnFeOFN,6.346484624410733,6.346484624410733,0.0
3358,perov_3358.cif,0.173670994184,0.0036749309468000002,2.1,True,0.8902921279952454,BGeOFN,6.45950216435659,6.45950216435659,0.0
3359,perov_3359.cif,0.294321879295,0.0036749309468000002,0.5,True,-0.009568411551481464,SnTaOFN,6.315481768737014,6.315481768737014,0.0
3360,perov_3360.cif,0.270747579677,0.0036749309468000002,1.26,True,0.000233756707547883,SbRuOFN,6.590932650021923,6.590932650021923,0.0
3361,perov_3361.cif,0.285068306218,0.0018374654734000001,1.04,True,2.1964180486851284,InCoO2N,5.597458759905448,5.597458759905448,0.0
3362,perov_3362.cif,0.301302436977,0.0018374654734000001,0.92,True,0.0,InCrON2,5.399501750761623,5.399501750761623,0.0
3363,perov_3363.cif,0.23818587124499999,0.0018374654734000001,0.64,True,0.5132793846945685,ScNbN3,5.521816093078891,5.521816093078891,0.0
3364,perov_3364.cif,0.16123161954600002,0.0018374654734000001,2.0,True,-0.7972785858769214,PdAuO2N,6.381636124799682,6.381636124799682,0.0
3365,perov_3365.cif,0.13911318237099998,0.0036749309468000002,2.58,True,3.0007278751428683,ReCaOFN,5.498819118911274,5.498819118911274,0.0
3366,perov_3366.cif,0.17501157412999999,0.0018374654734000001,1.74,True,0.0023642014680653745,SiCdO2S,5.946729761439543,5.946729761439543,0.0
3367,perov_3367.cif,0.265919761133,0.0018374654734000001,0.54,True,2.9362380752350097,BiCrO2S,5.576388459857254,5.576388459857254,0.0
3368,perov_3368.cif,0.283329295107,0.0018374654734000001,1.48,True,1.7580430535223128,AsOsO3,6.438636859268723,6.438636859268723,0.0
3369,perov_3369.cif,0.318441024707,0.0018374654734000001,0.78,True,2.7081234108550234e-05,BiAsO2N,6.175162789552081,6.175162789552081,0.0
3370,perov_3370.cif,0.131184619675,0.0018374654734000001,3.52,True,3.9431047088509033,InRbON2,4.921395522908052,4.921395522908052,0.0
3371,perov_3371.cif,0.121718951985,0.0018374654734000001,2.7,True,3.0903088799050243e-07,SiBaO3,5.587600339553107,5.587600339553107,0.0
3372,perov_3372.cif,0.11700780205,0.0018374654734000001,2.64,True,1.3335495381866274,BiRbO2S,5.082619557715039,5.082619557715039,0.0
3373,perov_3373.cif,0.23061883901500002,0.0018374654734000001,0.48,False,-6.094979997934105e-05,HgTaO2N,6.568408464442418,5.738408464442418,0.8
3374,perov_3374.cif,0.19461038588399998,0.0018374654734000001,0.84,True,0.30793451621097745,CsAsO3,5.4830345514662095,5.4830345514662095,0.0
3375,perov_3375.cif,0.242833138986,0.0018374654734000001,2.12,True,-0.020624918460604158,MoSrN3,4.958377258920861,4.958377258920861,0.0
3376,perov_3376.cif,0.0641907284724,0.0018374654734000001,3.44,True,0.0,RbSrN3,4.476821897981159,4.476821897981159,0.0
3377,perov_3377.cif,0.256536557305,0.0018374654734000001,1.82,True,-3.6930851644611735,ReHfO2N,5.626063413754059,5.626063413754059,0.0
3378,perov_3378.cif,0.16397956302000002,0.0018374654734000001,2.84,True,3.4625056824483735,AlMgN3,5.407890714138932,5.407890714138932,0.0
3379,perov_3379.cif,0.20269991772100002,0.0018374654734000001,2.1,True,0.006561132278335435,NiHgON2,6.1972268736229,6.1972268736229,0.0
3380,perov_3380.cif,0.293535550664,0.0036749309468000002,1.2,True,-1.1374518220064326e-15,InBOFN,5.969250720554752,5.969250720554752,0.0
3381,perov_3381.cif,0.08214894331610001,0.0018374654734000001,1.2,True,1.9999390450398096,GaYO3,5.343983616246822,5.343983616246822,0.0
3382,perov_3382.cif,0.154047333758,0.0018374654734000001,1.78,True,-0.002928467182215986,SnCsO3,5.258471201455167,5.258471201455167,0.0
3383,perov_3383.cif,0.15235638687300002,0.0036749309468000002,0.9,True,2.6841237528444637,CoAsO2F,6.7950989712995495,6.59509897129955,0.2
3384,perov_3384.cif,0.268583301719,0.0018374654734000001,2.06,True,0.4406104695623671,GeBeN3,6.1307192548730445,6.1307192548730445,0.0
3385,perov_3385.cif,0.517356005282,0.0018374654734000001,0.94,True,-0.009233731897229477,HfSiO2N,5.822334318259184,5.822334318259184,0.0
3386,perov_3386.cif,0.195055463347,0.0018374654734000001,1.06,True,1.9942382224837232,PbInO2N,5.486395754249936,5.486395754249936,0.0
3387,perov_3387.cif,0.246004612994,0.0018374654734000001,1.1,True,0.8903032261767744,PdWN3,5.960506748313898,5.960506748313898,0.0
3388,perov_3388.cif,0.332238068804,0.0018374654734000001,1.08,True,-0.1361957562531231,YSbO3,5.807423131125557,5.807423131125557,0.0
3389,perov_3389.cif,0.212405574727,0.0018374654734000001,1.28,True,1.7324783543977809,AgFeO2N,5.9457503949505695,5.9457503949505695,0.0
3390,perov_3390.cif,0.250093399897,0.0018374654734000001,0.82,True,-0.4965851002773304,MnFeO2N,5.739032277875701,5.739032277875701,0.0
3391,perov_3391.cif,0.292860905838,0.0036749309468000002,0.56,False,-3.3339910160116248e-15,CaZrOFN,7.093377713299062,3.6933777132990615,3.4
3392,perov_3392.cif,0.17606134418900002,0.0018374654734000001,2.14,True,-2.166875711472219,PtMgO2N,6.123534446859669,6.123534446859669,0.0
3393,perov_3393.cif,0.244468508197,0.0036749309468000002,1.3,True,1.7476183885234422,RuOsOFN,6.6017686027565645,6.6017686027565645,0.0
3394,perov_3394.cif,0.10223870459699999,0.0018374654734000001,2.5,True,2.0001375137601105,AsSrO2N,5.346702818206858,5.346702818206858,0.0
3395,perov_3395.cif,0.319757565198,0.0036749309468000002,0.84,True,1.6946825528407141,ScHfO2F,5.827849199967967,5.827849199967967,0.0
3396,perov_3396.cif,0.26885259989599997,0.0018374654734000001,0.92,True,4.35265846632357,CrAsO3,6.095940896343948,6.095940896343948,0.0
3397,perov_3397.cif,0.12298138794600001,0.0018374654734000001,4.24,True,0.0,MnSrN3,4.911738461881164,4.911738461881164,0.0
3398,perov_3398.cif,0.25630661923,0.0036749309468000002,1.0,True,0.011333687716721384,MgWOFN,6.2323640267973826,6.2323640267973826,0.0
3399,perov_3399.cif,0.17580328667999998,0.0018374654734000001,1.04,True,0.576875342292853,BeMoN3,5.931612666701633,5.931612666701633,0.0
3400,perov_3400.cif,0.292722134723,0.0036749309468000002,1.18,True,1.925689876003389e-06,SbBeOFN,6.704147905482232,6.704147905482232,0.0
3401,perov_3401.cif,0.228445027915,0.0036749309468000002,1.0,False,4.090210919413069e-15,SiZrOFN,6.793579036949028,5.793579036949028,1.0
3402,perov_3402.cif,0.262938871398,0.0018374654734000001,0.96,True,-0.0010167172791382538,InSbON2,5.693685127162801,5.693685127162801,0.0
3403,perov_3403.cif,0.269087755469,0.0018374654734000001,0.66,True,-3.4258334696507595,FeWO2N,5.934998515536481,5.934998515536481,0.0
3404,perov_3404.cif,0.237022205972,0.0018374654734000001,0.76,True,0.0013421950999799035,BiSbO2S,5.880209230915246,5.880209230915246,0.0
3405,perov_3405.cif,0.169831114062,0.0018374654734000001,2.0,True,1.0249820591181444,NaRhN3,5.42729351769148,5.42729351769148,0.0