,id,fermi level,fermi width,e_form,gap is direct,mu_b,formula,vbm,cbm,gap gllbsc
2228,perov_2228.cif,0.17637441310600002,0.0018374654734000001,0.44,True,0.048218071429520386,SrInO3,4.8367687468964125,4.8367687468964125,0.0
2229,perov_2229.cif,0.19175313061299998,0.0018374654734000001,1.0,True,-0.0012193003247208836,PtYO2S,5.746524241060591,5.746524241060591,0.0
2230,perov_2230.cif,0.237052002709,0.0018374654734000001,0.9,True,-6.04834443382942e-05,AuMoO2N,6.215455432012105,6.215455432012105,0.0
2231,perov_2231.cif,0.29214868308499997,0.0018374654734000001,1.0,True,-0.0014161936068246641,GaSiO2N,5.748787543895898,5.748787543895898,0.0
2232,perov_2232.cif,0.153041354307,0.0018374654734000001,2.0,True,-0.5023159612024121,YNaO2N,5.185038449861494,5.185038449861494,0.0
2233,perov_2233.cif,0.18216543056899998,0.0036749309468000002,1.9,True,2.5067746721553488,NbAgO2F,6.369373676202486,6.369373676202486,0.0
2234,perov_2234.cif,0.320236892364,0.0018374654734000001,0.0,True,5.113968185810337e-06,SnTaO3,5.961114286169919,5.961114286169919,0.0
2235,perov_2235.cif,0.35596850436099997,0.0018374654734000001,0.78,True,3.0917382936491795,BiFeO2N,5.854616383649382,5.854616383649382,0.0
2236,perov_2236.cif,0.30440669042,0.0036749309468000002,-0.3,True,2.7812506001955204,TiTiO2F,5.879437450602121,5.879437450602121,0.0
2237,perov_2237.cif,0.0920884660052,0.0036749309468000002,2.22,True,0.0,BeLaOFN,6.0981292907484645,6.0981292907484645,0.0
2238,perov_2238.cif,0.260832595856,0.0018374654734000001,0.84,True,-0.35677883283535466,OsTaO2N,6.073561253469694,6.073561253469694,0.0
2239,perov_2239.cif,0.12322055634000001,0.0018374654734000001,1.0,True,-0.18854460543154467,RbTeO2S,5.385595207027087,5.385595207027087,0.0
2240,perov_2240.cif,0.143260189945,0.0018374654734000001,2.68,True,-0.0017501054704773065,BiCsO2S,5.01571965963983,5.01571965963983,0.0
2241,perov_2241.cif,0.269267633128,0.0018374654734000001,0.86,True,0.0033111285052349624,PdReO2S,5.751444643346161,5.751444643346161,0.0
2242,perov_2242.cif,0.246394091389,0.0018374654734000001,2.02,True,-0.0022541224266736967,SiPtO2N,6.42269505087264,6.42269505087264,0.0
2243,perov_2243.cif,-0.00500350797266,0.0036749309468000002,1.52,True,0.0,GaSrO2F,5.193308610781912,5.193308610781912,0.0
2244,perov_2244.cif,0.238460344153,0.0018374654734000001,1.02,False,-0.0005919869477237227,BiPbO2N,6.079745149327517,5.529745149327519,0.6
2245,perov_2245.cif,0.19680767079599998,0.0018374654734000001,3.32,True,0.00018261330489366208,InCsON2,4.85661773359455,4.85661773359455,0.0
2246,perov_2246.cif,0.45699730533699995,0.0018374654734000001,1.08,True,-0.17280165531513994,ZrGeO2N,5.858638695398554,5.858638695398554,0.0
2247,perov_2247.cif,0.233987294393,0.0018374654734000001,0.56,True,0.0026522239214804943,YYO3,7.210639443654202,3.4706394436542016,3.7
2248,perov_2248.cif,0.162799979754,0.0018374654734000001,1.4,True,0.12603888532919608,BNbO2S,5.70662748962949,5.70662748962949,0.0
2249,perov_2249.cif,0.157836466587,0.0018374654734000001,0.88,True,-3.544097836103941,CrPbO3,5.730275387801796,5.730275387801796,0.0
2250,perov_2250.cif,0.13129226663,0.0036749309468000002,1.46,True,2.5342056863844884,CoPbO2F,6.2934929170891865,6.2934929170891865,0.0
2251,perov_2251.cif,0.281309647073,0.0018374654734000001,1.46,True,0.002335732595664552,TaZnON2,5.918362103790344,5.918362103790344,0.0
2252,perov_2252.cif,0.37796793446099997,0.0018374654734000001,1.2,True,0.0017470267646242375,HfBeON2,5.815175838328267,5.815175838328267,0.0
2253,perov_2253.cif,0.236836790842,0.0018374654734000001,0.96,True,-0.0003154172220725114,AuWN3,6.278361879348828,6.278361879348828,0.0
2254,perov_2254.cif,0.183961284996,0.0018374654734000001,1.24,True,1.8131248975469436,CaBeO2S,5.199957805206576,5.199957805206576,0.0
2255,perov_2255.cif,0.246997132456,0.0018374654734000001,0.7,True,-5.926518801758675e-05,SbZrO2S,5.7391118901746125,5.7391118901746125,0.0
2256,perov_2256.cif,0.211220483909,0.0018374654734000001,1.18,True,-0.3994144887819201,TlZrON2,6.027087620642433,6.027087620642433,0.0
2257,perov_2257.cif,0.41996213060000004,0.0018374654734000001,1.0,True,2.264864310547349,ZrFeO2N,5.714133150766036,5.714133150766036,0.0
2258,perov_2258.cif,0.257489082556,0.0018374654734000001,1.58,True,-9.987172226595376e-05,SiBeO2S,6.067875675603161,6.067875675603161,0.0
2259,perov_2259.cif,0.216586398705,0.0018374654734000001,1.82,True,1.8233113793469224,SiSnN3,6.0136164907252265,6.0136164907252265,0.0
2260,perov_2260.cif,0.127048542894,0.0018374654734000001,2.18,True,0.3323369507469245,SnRbO3,5.328608930690624,5.328608930690624,0.0
2261,perov_2261.cif,0.12984993984999998,0.0018374654734000001,1.58,True,2.6898666397651185,NiTlO3,6.348658840495298,6.348658840495298,0.0
2262,perov_2262.cif,0.275962226093,0.0018374654734000001,1.22,True,0.008516608537945556,CaPtO2N,5.504025633637756,5.504025633637756,0.0
2263,perov_2263.cif,0.14877279365999999,0.0018374654734000001,0.9,True,1.0740862783747147,CsPbO3,5.154134279677397,5.154134279677397,0.0
2264,perov_2264.cif,0.301642715524,0.0036749309468000002,1.78,True,0.0,IrCoOFN,6.65821731519568,6.65821731519568,0.0
2265,perov_2265.cif,0.199440305531,0.0036749309468000002,1.5,True,3.4109308317760074e-14,PtGaOFN,6.329320066588823,6.329320066588823,0.0
2266,perov_2266.cif,0.041024590330800005,0.0018374654734000001,1.88,True,3.0031098843417214,ZnLiO3,5.642379423124633,5.642379423124633,0.0
2267,perov_2267.cif,0.34019854284400003,0.0018374654734000001,1.16,True,0.038801668478821945,SrOsN3,5.18786202843978,5.18786202843978,0.0
2268,perov_2268.cif,0.336703925787,0.0018374654734000001,1.78,True,3.348662693874552,ReCoO3,5.93471067478779,5.93471067478779,0.0
2269,perov_2269.cif,0.282165581303,0.0018374654734000001,0.0,True,-0.0004017599539710905,SrTaO2N,6.154110286952517,4.004110286952516,2.1
2270,perov_2270.cif,0.317568383436,0.0036749309468000002,1.46,True,3.2455282378243395,RuSiO2F,6.612596603178365,6.612596603178365,0.0
2271,perov_2271.cif,0.288841606904,0.0036749309468000002,1.46,True,2.4856561401962303,TaMoO2F,6.237029944378426,6.237029944378426,0.0
2272,perov_2272.cif,0.197692906787,0.0018374654734000001,0.54,True,0.6275834959214883,ZnNbO2S,5.748573226715517,5.748573226715517,0.0
2273,perov_2273.cif,0.17425772157000002,0.0018374654734000001,0.5,True,0.13078541937465715,NiVO2S,5.616000048458693,5.616000048458693,0.0
2274,perov_2274.cif,0.293234955371,0.0018374654734000001,1.46,True,0.016238863782909622,TlBO3,6.316593266914987,6.316593266914987,0.0
2275,perov_2275.cif,0.29384647854,0.0036749309468000002,1.58,True,0.8582424242159592,ScIrOFN,6.330143686508893,6.330143686508893,0.0
2276,perov_2276.cif,0.27102371285599997,0.0018374654734000001,1.52,True,0.031936672293573665,PtSiO2S,6.225417712514313,6.225417712514313,0.0
2277,perov_2277.cif,0.332604273918,0.0018374654734000001,1.3,True,0.2764354870980412,SrIrON2,5.317249145382,5.317249145382,0.0
2278,perov_2278.cif,0.193201077646,0.0018374654734000001,2.04,True,0.4462360761694129,NaTeN3,5.699071260939815,5.699071260939815,0.0
2279,perov_2279.cif,0.24625896041700002,0.0018374654734000001,1.26,False,7.312331916864423e-06,HfMgO2S,5.6806308428260435,5.080630842826042,0.6
2280,perov_2280.cif,0.0794025919328,0.0018374654734000001,1.68,True,3.2311453824888243,LiZnO2N,5.602865201501147,5.602865201501147,0.0
2281,perov_2281.cif,0.175933629151,0.0018374654734000001,1.98,True,0.0009185839784144953,CaMgON2,5.0496764152685145,5.0496764152685145,0.0
2282,perov_2282.cif,0.12118376689400001,0.0018374654734000001,3.26,True,3.999760316276319,CuBaN3,5.405093464208712,5.405093464208712,0.0
2283,perov_2283.cif,0.305294900369,0.0018374654734000001,0.64,True,-2.7074677800949987,VGeO3,5.886932446075817,5.886932446075817,0.0
2284,perov_2284.cif,0.326936361455,0.0018374654734000001,1.76,True,-3.3043884034479216,WSbO2N,6.149839132803083,6.149839132803083,0.0
2285,perov_2285.cif,0.321397832971,0.0036749309468000002,1.22,True,2.6533307101115278,NbGeOFN,6.369708939282487,6.369708939282487,0.0
2286,perov_2286.cif,0.21515601933400003,0.0036749309468000002,1.18,True,3.250693128416291,MoZnO2F,6.340055504810896,6.340055504810896,0.0
2287,perov_2287.cif,0.244346757458,0.0018374654734000001,2.64,True,-2.8126126030481964,CrCsN3,5.00170481515267,5.00170481515267,0.0
2288,perov_2288.cif,0.21240595571100002,0.0018374654734000001,1.2,True,1.7952941301659853,TlGaO2N,5.915198692143512,5.915198692143512,0.0
2289,perov_2289.cif,0.21615256542300001,0.0018374654734000001,1.62,True,2.058322898870252,TaTlO2S,6.0248648278973045,6.0248648278973045,0.0
2290,perov_2290.cif,0.273689999103,0.0018374654734000001,1.24,True,-0.1764104172965349,ZrBiO3,5.768536259366112,5.768536259366112,0.0
2291,perov_2291.cif,0.117767351558,0.0036749309468000002,2.08,True,4.052306481228875,CoAgOFN,6.416915323476968,6.416915323476968,0.0
2292,perov_2292.cif,0.39092169867700005,0.0018374654734000001,0.96,True,0.4957797905838851,ScReO2N,5.602773173367408,5.602773173367408,0.0
2293,perov_2293.cif,0.121535140028,0.0018374654734000001,1.18,False,1.4641860019537491e-05,MgPbO2S,5.674236222617209,5.374236222617208,0.3
2294,perov_2294.cif,0.20700868011100002,0.0036749309468000002,0.16,True,-1.1989259964448686,InVO2F,5.804181375621392,5.804181375621392,0.0
2295,perov_2295.cif,0.17912384651799998,0.0018374654734000001,2.58,True,-6.806634936751622e-05,MgCsO2N,5.080657852836084,5.080657852836084,0.0
2296,perov_2296.cif,0.138279800193,0.0018374654734000001,1.36,True,0.0030411302506863085,GeCdO2S,5.906203124201907,5.906203124201907,0.0
2297,perov_2297.cif,0.331880339655,0.0018374654734000001,1.5,True,0.9718461585803267,SnAsN3,6.144258961131309,6.144258961131309,0.0
2298,perov_2298.cif,0.19831519572200001,0.0036749309468000002,1.52,True,0.0,LaKO2F,5.333012457597001,5.333012457597001,0.0
2299,perov_2299.cif,0.12332498090399999,0.0036749309468000002,1.2,True,1.9983498604136685,KScOFN,5.403415818811539,5.403415818811539,0.0
2300,perov_2300.cif,0.307883022107,0.0036749309468000002,1.16,True,0.9395075253817,NbFeOFN,6.2125976533203415,6.2125976533203415,0.0
2301,perov_2301.cif,0.17976122228900002,0.0018374654734000001,4.0,True,0.0,CsCsN3,4.498816636192276,4.498816636192276,0.0
2302,perov_2302.cif,0.23311989214,0.0036749309468000002,2.02,True,-2.4221369258898324e-07,LaCsO2F,5.227551836003153,5.227551836003153,0.0
2303,perov_2303.cif,0.211563237051,0.0018374654734000001,2.56,True,1.1602908130090592,BIrO3,6.281692824953664,6.281692824953664,0.0
2304,perov_2304.cif,0.311413884385,0.0036749309468000002,1.78,True,5.334473408018837,ReReO2F,6.2440430033522265,6.2440430033522265,0.0
2305,perov_2305.cif,0.15402760018,0.0018374654734000001,2.84,True,-1.9842257484209436,SiMgON2,5.892511023684652,5.892511023684652,0.0
2306,perov_2306.cif,0.339687787387,0.0018374654734000001,1.42,True,3.7349409972768,WGeO3,6.128004666673821,6.128004666673821,0.0
2307,perov_2307.cif,0.34383688052199995,0.0018374654734000001,2.32,True,2.7267964170576153,OsIrON2,6.358325879907968,6.358325879907968,0.0
2308,perov_2308.cif,0.19017880778000001,0.0018374654734000001,1.82,True,-2.278039033837119,WRbO2N,5.315676947148545,5.315676947148545,0.0
2309,perov_2309.cif,0.19464185905099998,0.0036749309468000002,0.84,True,0.9712320158784244,SnInOFN,5.972030996898424,5.972030996898424,0.0
2310,perov_2310.cif,0.193390730785,0.0036749309468000002,0.24,True,0.0,HgNbO2F,6.5789143929584535,6.5789143929584535,0.0
2311,perov_2311.cif,0.298422177612,0.0018374654734000001,1.14,True,3.3363813228413464,MoMoON2,5.7068781835600175,5.7068781835600175,0.0
2312,perov_2312.cif,0.232567986666,0.0018374654734000001,1.74,True,3.290126698337117,WAsO2S,6.067667536622957,6.067667536622957,0.0
2313,perov_2313.cif,0.170798812128,0.0036749309468000002,1.18,True,-0.002415668547987677,HgBiOFN,6.568383300795723,6.568383300795723,0.0
2314,perov_2314.cif,0.283491324158,0.0018374654734000001,1.32,True,-1.733397252754156,MoOsO2S,5.82841893791198,5.82841893791198,0.0
2315,perov_2315.cif,0.31444289297600003,0.0018374654734000001,0.82,True,0.7763141953902988,WCrO2N,5.832087026740693,5.832087026740693,0.0
2316,perov_2316.cif,0.344977653052,0.0018374654734000001,1.12,True,0.1681942045079179,WCoON2,5.961519735228051,5.961519735228051,0.0
2317,perov_2317.cif,0.29111825146,0.0018374654734000001,0.94,True,-4.2353741683161894e-05,MgReN3,5.653999615053178,5.653999615053178,0.0
2318,perov_2318.cif,0.18064690462699998,0.0018374654734000001,1.64,True,0.5533148091218809,LiMnN3,5.330188078543985,5.330188078543985,0.0
2319,perov_2319.cif,0.217239565696,0.0018374654734000001,0.98,True,0.0013217165094765446,SnBiO2N,5.922252611826766,5.922252611826766,0.0
2320,perov_2320.cif,0.228919910869,0.0036749309468000002,1.78,True,4.348311324983508,ReCuO2F,6.383996109921403,6.383996109921403,0.0
2321,perov_2321.cif,0.155995427092,0.0018374654734000001,1.52,True,2.1471823054595767,HgInO2N,5.8187716205815745,5.8187716205815745,0.0
2322,perov_2322.cif,0.39191607153700003,0.0018374654734000001,1.22,True,7.4154470404153e-06,YTeON2,5.870098180117508,5.870098180117508,0.0
2323,perov_2323.cif,0.20856294584899998,0.0018374654734000001,0.8,True,0.7905434885120997,BaAlO2S,4.970545260275867,4.970545260275867,0.0
2324,perov_2324.cif,0.142583273392,0.0036749309468000002,1.88,True,1.0530332491181262,CrLiOFN,5.76737127971963,5.76737127971963,0.0
2325,perov_2325.cif,0.262390894249,0.0018374654734000001,1.7,True,2.0187064949396567,CrSbN3,5.863778843350652,5.863778843350652,0.0
2326,perov_2326.cif,0.243576264162,0.0018374654734000001,1.34,True,0.0019241348020955227,ScCuO2N,5.728352947656957,5.728352947656957,0.0
2327,perov_2327.cif,0.21224928077799998,0.0036749309468000002,0.9,True,1.96161843984134,RhNbOFN,6.2843695073444215,6.2843695073444215,0.0
2328,perov_2328.cif,0.091853722861,0.0018374654734000001,0.84,True,0.9999968456412952,ZnYO3,5.708304404725715,5.708304404725715,0.0
2329,perov_2329.cif,0.146445979488,0.0036749309468000002,1.34,True,2.311299469711848,RhBiO2F,6.363121147843593,6.363121147843593,0.0
2330,perov_2330.cif,0.24444087887600002,0.0018374654734000001,1.42,True,3.454244009049034e-06,ScPdO2S,5.5449465348463045,5.5449465348463045,0.0
2331,perov_2331.cif,0.288638661195,0.0018374654734000001,0.2,False,-0.00011807964434228953,PbTaO2N,6.776917702710638,4.826917702710639,2.0
2332,perov_2332.cif,0.193671452131,0.0036749309468000002,1.26,True,3.5460017766375422,FeTeOFN,6.6187457551074695,6.6187457551074695,0.0
2333,perov_2333.cif,0.138212065695,0.0036749309468000002,1.3,True,0.0,NiBiO2F,6.392445529441451,6.392445529441451,0.0
2334,perov_2334.cif,0.21679925518100002,0.0036749309468000002,0.38,True,-2.53763676893257e-15,CaYO2F,5.289940767207594,5.289940767207594,0.0
2335,perov_2335.cif,0.10606907287499999,0.0036749309468000002,1.68,True,0.0,AuLaOFN,6.300754735943189,6.300754735943189,0.0
2336,perov_2336.cif,0.230692439932,0.0018374654734000001,1.26,True,0.02623223817517761,GePtO3,6.4239121198280165,6.4239121198280165,0.0
2337,perov_2337.cif,0.416482804762,0.0036749309468000002,0.34,True,0.00012980854522481875,LaScO2F,5.687989923285969,5.687989923285969,0.0
2338,perov_2338.cif,0.17935746237,0.0036749309468000002,0.6,True,0.0,NiNbOFN,6.313330962776991,6.313330962776991,0.0
2339,perov_2339.cif,0.130586435851,0.0018374654734000001,2.58,True,4.696707673937649,AgCdN3,5.965927698095943,5.965927698095943,0.0
2340,perov_2340.cif,0.215356053117,0.0018374654734000001,2.28,True,-1.2543310166628159,TiAuO3,6.1076756740757085,6.1076756740757085,0.0
2341,perov_2341.cif,0.269959563961,0.0018374654734000001,0.76,True,-0.0332404267065866,ReTiO2N,5.639200891155103,5.639200891155103,0.0
2342,perov_2342.cif,0.205865963769,0.0018374654734000001,1.18,True,3.8400213231426505e-06,TeLiO2S,5.663746873226705,5.663746873226705,0.0
2343,perov_2343.cif,0.244813184381,0.0036749309468000002,1.16,True,5.350196792000304e-15,YCdO2F,6.084809950049541,6.084809950049541,0.0
2344,perov_2344.cif,0.351511112924,0.0018374654734000001,0.96,True,0.003510137999064966,YAsN3,5.788072429337742,5.788072429337742,0.0
2345,perov_2345.cif,0.244744627488,0.0036749309468000002,0.84,True,1.4339663978812485e-09,AlTaO2F,5.998821152976736,5.998821152976736,0.0
2346,perov_2346.cif,0.291358296834,0.0018374654734000001,0.9,True,0.6148296779774576,TlOsO3,6.48415258986662,6.48415258986662,0.0
2347,perov_2347.cif,0.34361695995200003,0.0018374654734000001,1.16,True,-0.05336571532515713,NbOsN3,5.959288578020357,5.959288578020357,0.0
2348,perov_2348.cif,0.143691581844,0.0018374654734000001,1.24,True,1.9985007019149168,MgScO2N,5.528157649545294,5.528157649545294,0.0
2349,perov_2349.cif,0.24261620181,0.0036749309468000002,0.62,False,-6.192984021882593e-16,GeZrOFN,6.750688640918138,5.750688640918138,1.0
2350,perov_2350.cif,0.19902081619000003,0.0018374654734000001,2.48,True,3.0226788233526563,AuLaN3,5.823139546685567,5.823139546685567,0.0
2351,perov_2351.cif,0.274365320335,0.0018374654734000001,1.4,True,1.3684267134138874,InGeN3,5.5942845356676845,5.5942845356676845,0.0
2352,perov_2352.cif,0.346074394169,0.0036749309468000002,0.64,True,1.6855200293698227,ScTiO2F,5.841457869392863,5.841457869392863,0.0
2353,perov_2353.cif,0.238914369875,0.0018374654734000001,2.18,True,-1.3581189131368998,CsSbN3,5.274214850004698,5.274214850004698,0.0
2354,perov_2354.cif,0.051528955906,0.0036749309468000002,2.52,True,0.0,KCsOFN,4.966013770291382,4.966013770291382,0.0
2355,perov_2355.cif,0.284710046561,0.0036749309468000002,2.12,True,1.7466877996823338,TaPtOFN,6.650952308672862,6.650952308672862,0.0
2356,perov_2356.cif,0.116570168794,0.0018374654734000001,1.86,True,3.824627170339325,LiZrN3,5.307062745899015,5.307062745899015,0.0
2357,perov_2357.cif,0.184230068816,0.0018374654734000001,0.94,True,0.9609471206644038,RhHfON2,5.665227133095182,5.665227133095182,0.0
2358,perov_2358.cif,0.282489143541,0.0018374654734000001,1.82,True,-3.5174899724359694,RuTeO2N,6.332596904453765,6.332596904453765,0.0
2359,perov_2359.cif,0.36246559856,0.0018374654734000001,1.58,True,0.011678387499131304,HfRuON2,5.716972960443579,5.716972960443579,0.0
2360,perov_2360.cif,0.352959275723,0.0018374654734000001,1.82,True,0.007458599380576914,HfRhO2N,5.705181162405852,5.705181162405852,0.0
2361,perov_2361.cif,0.269472152653,0.0018374654734000001,0.46,True,0.7711615506339555,TiWON2,5.704625171336235,5.704625171336235,0.0
2362,perov_2362.cif,0.224036014212,0.0018374654734000001,0.84,True,1.333779001587501,CaRuO2S,5.1121443262083135,5.1121443262083135,0.0
2363,perov_2363.cif,0.11650847995300001,0.0018374654734000001,1.2,True,-1.5341254751168796,GaInO3,5.313483302436572,5.313483302436572,0.0
2364,perov_2364.cif,0.21211634847600003,0.0036749309468000002,0.8,True,0.9816880967653104,MgVOFN,5.987186368287102,5.987186368287102,0.0
2365,perov_2365.cif,0.22893974844999998,0.0018374654734000001,0.76,True,-0.0004582949593665121,BiScO2S,6.1074997584091815,4.807499758409182,1.3
2366,perov_2366.cif,0.19408681245099998,0.0018374654734000001,0.44,True,-2.8549575391383146,FeVO2N,5.701519047224845,5.701519047224845,0.0
2367,perov_2367.cif,0.162841095127,0.0018374654734000001,2.48,True,2.8628508750173767,FeKON2,5.229269679718495,5.229269679718495,0.0
2368,perov_2368.cif,0.205811338288,0.0018374654734000001,1.56,True,-1.0597677195786257,InScON2,5.284384277107163,5.284384277107163,0.0
2369,perov_2369.cif,0.28149384161999996,0.0018374654734000001,0.34,True,0.995329881151104,LaMgO3,5.456128974924903,5.456128974924903,0.0
2370,perov_2370.cif,0.336244998301,0.0018374654734000001,1.2,True,-0.02625845093196784,PbIrON2,6.073946066019585,6.073946066019585,0.0
2371,perov_2371.cif,0.24161880531899999,0.0018374654734000001,0.68,True,0.6607974070569327,PdMoO3,5.942400373025744,5.942400373025744,0.0
2372,perov_2372.cif,0.013343634960300001,0.0036749309468000002,1.94,True,0.0,LiMgOFN,5.776643628707615,5.776643628707615,0.0
2373,perov_2373.cif,0.19347105799699998,0.0036749309468000002,1.9,True,0.5239100555159696,ScHgO2F,6.345875250706057,6.345875250706057,0.0
2374,perov_2374.cif,0.162114579284,0.0036749309468000002,0.94,True,3.11754688556626,CuCoO2F,6.473772453071747,6.473772453071747,0.0