,id,fermi level,fermi width,e_form,gap is direct,mu_b,formula,vbm,cbm,gap gllbsc
1347,perov_1347.cif,0.335283446747,0.0018374654734000001,1.38,True,0.95637782580944,IrMnN3,5.977746390624369,5.977746390624369,0.0
1348,perov_1348.cif,0.165579644434,0.0018374654734000001,1.86,True,1.003810268707145,TiRbO3,5.098987839392262,5.098987839392262,0.0
1349,perov_1349.cif,0.32279260329500004,0.0018374654734000001,1.26,True,-1.1185877955148178,ReReO2S,5.63292302383333,5.63292302383333,0.0
1350,perov_1350.cif,0.18249415743099998,0.0018374654734000001,1.38,True,1.5471380265807966e-07,InTlO3,5.9192106182279165,5.9192106182279165,0.0
1351,perov_1351.cif,0.28919310689399996,0.0018374654734000001,0.9,True,-0.00043646932264133497,LaPbO2N,5.457781960263143,5.457781960263143,0.0
1352,perov_1352.cif,0.174201249984,0.0018374654734000001,2.04,True,2.0887049523575993,NiAuON2,6.322640043075945,6.322640043075945,0.0
1353,perov_1353.cif,0.355364755509,0.0036749309468000002,0.94,True,0.4847042256063006,YZrOFN,5.809442220424371,5.809442220424371,0.0
1354,perov_1354.cif,0.17812360633299998,0.0018374654734000001,0.72,True,0.001662314145175259,HgNbO2S,5.935019719759878,5.935019719759878,0.0
1355,perov_1355.cif,0.352184982019,0.0018374654734000001,1.42,True,-2.0318312232703306e-05,RuSiN3,6.0685444844945655,6.0685444844945655,0.0
1356,perov_1356.cif,0.238062859637,0.0036749309468000002,1.68,True,2.8006954652101386,MoRhOFN,6.252628643973679,6.252628643973679,0.0
1357,perov_1357.cif,0.170664768125,0.0018374654734000001,1.92,True,-0.008525625962915506,IrKO3,5.602067150889122,5.602067150889122,0.0
1358,perov_1358.cif,0.18429208983800002,0.0036749309468000002,1.28,True,2.203090204076928,WAsO2F,6.725953269451073,6.725953269451073,0.0
1359,perov_1359.cif,0.31477573973,0.0018374654734000001,1.5,False,2.1820577801534572e-05,OsBeO3,6.643375636117368,6.033375636117368,0.6
1360,perov_1360.cif,0.27929185591600003,0.0018374654734000001,1.22,True,0.004878662289433677,TaRuO3,6.015562728113975,6.015562728113975,0.0
1361,perov_1361.cif,0.172027609489,0.0036749309468000002,0.56,True,1.6010530907088973e-15,RbTeO2F,6.319882409016169,5.619882409016171,0.7
1362,perov_1362.cif,0.322317646879,0.0018374654734000001,0.7,True,2.9992081953295653,SbMnO2N,5.946779126314522,5.946779126314522,0.0
1363,perov_1363.cif,-0.0026265231676999997,0.0018374654734000001,2.08,True,0.0,GaSrO2S,4.68502661301981,4.68502661301981,0.0
1364,perov_1364.cif,0.304618234969,0.0018374654734000001,1.76,True,-0.003882124417458831,PtBO2N,6.290531915565423,6.290531915565423,0.0
1365,perov_1365.cif,0.121032577313,0.0036749309468000002,2.2,True,-0.09198878022942457,BiCsO2F,5.559878790290557,5.559878790290557,0.0
1366,perov_1366.cif,0.269814783334,0.0036749309468000002,0.8,True,2.6263917305868745e-05,PdReO2F,6.375423120909991,6.375423120909991,0.0
1367,perov_1367.cif,0.214685800753,0.0018374654734000001,2.06,True,3.9328838654987015,CuRhN3,5.941142106729796,5.941142106729796,0.0
1368,perov_1368.cif,0.125813343115,0.0036749309468000002,2.24,True,5.222034118554265e-15,BBiOFN,6.315617887830823,6.315617887830823,0.0
1369,perov_1369.cif,0.201069875239,0.0036749309468000002,0.88,True,-5.896615699733117e-16,CdAsOFN,6.687933443612008,6.687933443612008,0.0
1370,perov_1370.cif,0.175365153585,0.0036749309468000002,1.34,True,0.2760136407333054,BNbO2F,6.3257437210831675,6.3257437210831675,0.0
1371,perov_1371.cif,0.217543658358,0.0018374654734000001,1.26,True,0.0040528342832306654,CuAsON2,6.238548220725678,6.238548220725678,0.0
1372,perov_1372.cif,0.16878452026000001,0.0018374654734000001,0.96,True,-3.0747024399350256,FeGaO2N,5.568780179814863,5.568780179814863,0.0
1373,perov_1373.cif,0.272212434608,0.0036749309468000002,0.64,True,8.658750189086911e-15,PbGeOFN,6.334283689145537,6.334283689145537,0.0
1374,perov_1374.cif,0.16034861868699998,0.0018374654734000001,1.28,True,2.3886766564504818,CoPbO2S,5.6775331518330825,5.6775331518330825,0.0
1375,perov_1375.cif,0.123746374429,0.0036749309468000002,2.04,True,-0.5749422437661883,MgAgOFN,6.243654615380581,6.243654615380581,0.0
1376,perov_1376.cif,0.18724175932599998,0.0036749309468000002,0.68,True,-0.7373311014203879,CaBeO2F,5.764105068354225,5.764105068354225,0.0
1377,perov_1377.cif,0.395124697964,0.0018374654734000001,1.34,True,2.763076353286084,MoBO3,5.899040333259968,5.899040333259968,0.0
1378,perov_1378.cif,0.22333638700800001,0.0018374654734000001,2.1,True,-2.749932374097855,CoCsO2N,5.221645532553244,5.221645532553244,0.0
1379,perov_1379.cif,0.205042848504,0.0018374654734000001,1.68,True,0.017722358906375746,TiPbON2,5.565785933594492,5.565785933594492,0.0
1380,perov_1380.cif,0.21716816143800002,0.0018374654734000001,1.06,True,1.3337058407117637,GeTaN3,5.91601115474545,5.91601115474545,0.0
1381,perov_1381.cif,0.24557288053000004,0.0018374654734000001,1.9,True,1.7189312779838168,MoTlON2,6.110829265928773,6.110829265928773,0.0
1382,perov_1382.cif,0.130236876708,0.0018374654734000001,2.36,True,-0.0009730639968164168,RbCdON2,5.2856289965234255,5.2856289965234255,0.0
1383,perov_1383.cif,0.290829183519,0.0036749309468000002,0.66,True,3.060131267127801e-15,SbZrO2F,6.361752378237482,6.361752378237482,0.0
1384,perov_1384.cif,0.22563898050700001,0.0036749309468000002,1.14,True,1.0000475895811594,CsCrOFN,5.411945746654923,5.411945746654923,0.0
1385,perov_1385.cif,0.217417005155,0.0036749309468000002,1.58,True,2.3402087556689824e-07,SiBeO2F,6.726183989582977,6.726183989582977,0.0
1386,perov_1386.cif,0.33151932466899997,0.0018374654734000001,1.32,True,0.005946357233412412,ZrCuON2,5.786935463758647,5.786935463758647,0.0
1387,perov_1387.cif,0.239814565925,0.0036749309468000002,0.74,True,4.155639229158826,PbFeOFN,6.1780461804089475,6.1780461804089475,0.0
1388,perov_1388.cif,0.22341711971,0.0018374654734000001,1.22,True,2.2999741789883537,SrHfN3,4.827002474417254,4.827002474417254,0.0
1389,perov_1389.cif,0.353795649668,0.0018374654734000001,1.6,True,0.012371351879371772,TiAsN3,5.879489775359619,5.879489775359619,0.0
1390,perov_1390.cif,0.233800403506,0.0018374654734000001,0.98,True,2.492924260254785,BaZnO2N,5.474239999409874,5.474239999409874,0.0
1391,perov_1391.cif,0.25060011832400003,0.0018374654734000001,1.92,True,0.0017875991839844114,SiTeO3,6.449303947318697,6.449303947318697,0.0
1392,perov_1392.cif,0.20282838495799999,0.0018374654734000001,1.88,True,-0.06916246567807594,VLiO2N,5.370301541256224,5.370301541256224,0.0
1393,perov_1393.cif,0.160590175503,0.0036749309468000002,1.24,True,4.071846614675916,MnInOFN,5.8014552958239785,5.8014552958239785,0.0
1394,perov_1394.cif,0.15194458833,0.0036749309468000002,1.34,True,-8.674192079390122e-11,ZnBiOFN,6.3620399204481926,6.3620399204481926,0.0
1395,perov_1395.cif,0.266309487218,0.0018374654734000001,1.28,True,1.6848286758781938,IrZrN3,5.951811588378475,5.951811588378475,0.0
1396,perov_1396.cif,0.303312935252,0.0018374654734000001,1.56,True,1.1947367358544611e-05,YAuO3,6.0127103757557165,6.0127103757557165,0.0
1397,perov_1397.cif,0.11887115849999999,0.0036749309468000002,1.18,True,1.9966598687765689,AgInOFN,6.010421870148712,6.010421870148712,0.0
1398,perov_1398.cif,0.193871641105,0.0036749309468000002,0.78,True,0.0,NiVO2F,6.225284041879325,6.225284041879325,0.0
1399,perov_1399.cif,0.286454050681,0.0018374654734000001,0.86,True,0.02403258342020109,TaMoO2S,5.626596350339921,5.626596350339921,0.0
1400,perov_1400.cif,0.272120295136,0.0018374654734000001,1.48,True,3.6494952872854687,RuSiO2S,5.965405368503723,5.965405368503723,0.0
1401,perov_1401.cif,0.19066826032200002,0.0036749309468000002,0.38,True,2.9033870774242127e-07,ZnNbO2F,6.372240182168166,6.372240182168166,0.0
1402,perov_1402.cif,0.329944211391,0.0018374654734000001,1.38,True,0.4922801496637206,TaOsON2,6.0310274166933455,6.0310274166933455,0.0
1403,perov_1403.cif,0.114438152625,0.0018374654734000001,1.72,True,2.5016893332542454,KAgO2N,5.361231243739353,5.361231243739353,0.0
1404,perov_1404.cif,0.159815076457,0.0018374654734000001,1.68,True,0.0,SrYON2,4.796637465707531,4.796637465707531,0.0
1405,perov_1405.cif,0.205971781431,0.0018374654734000001,1.46,True,-4.515968713916265,MnBiO2N,5.7530987022561435,5.7530987022561435,0.0
1406,perov_1406.cif,0.136619044464,0.0018374654734000001,1.58,True,2.09012115027868,ZnInO2N,5.635977019432822,5.635977019432822,0.0
1407,perov_1407.cif,0.20530408145,0.0018374654734000001,1.34,True,-3.0852774371454466,CrCuO3,5.894421340069426,5.894421340069426,0.0
1408,perov_1408.cif,0.254269475964,0.0036749309468000002,0.9,True,1.5963414565877831,CaRuO2F,5.6667646401575045,5.6667646401575045,0.0
1409,perov_1409.cif,0.16935102426100002,0.0018374654734000001,1.58,True,1.356101510515043,AgBiO2N,5.960323487462693,5.960323487462693,0.0
1410,perov_1410.cif,0.152756988147,0.0018374654734000001,1.78,True,-3.91010046805942,CoScO2N,5.6815633979140765,5.6815633979140765,0.0
1411,perov_1411.cif,0.199893277808,0.0018374654734000001,0.88,True,0.18440514983090145,PdTiO2N,5.75785460247869,5.75785460247869,0.0
1412,perov_1412.cif,0.4487205711300001,0.0018374654734000001,0.98,True,0.4301845120434642,ZrReON2,5.660071414701711,5.660071414701711,0.0
1413,perov_1413.cif,-0.0163100907191,0.0036749309468000002,2.54,True,0.0,CsRbOFN,4.932737648256512,4.932737648256512,0.0
1414,perov_1414.cif,0.28533328633099997,0.0036749309468000002,0.54,True,2.6737899938098543e-16,BiScO2F,6.049587938288786,6.049587938288786,0.0
1415,perov_1415.cif,0.197925306217,0.0036749309468000002,0.88,True,0.0001156810711897549,TlTeOFN,7.030479740635716,7.030479740635716,0.0
1416,perov_1416.cif,0.30942130729,0.0018374654734000001,0.82,True,-2.3877348469227844,NbTaO2N,5.834365631470872,5.834365631470872,0.0
1417,perov_1417.cif,0.11297164663699999,0.0018374654734000001,2.32,True,-0.9481324108592972,BInO2N,5.594852865498178,5.594852865498178,0.0
1418,perov_1418.cif,0.19343277002099998,0.0018374654734000001,1.5,True,-0.640986761953785,CsCuO3,5.3017764473215285,5.3017764473215285,0.0
1419,perov_1419.cif,0.22749770066,0.0018374654734000001,1.4,True,1.2292821637310318,NiGeN3,6.000158849601058,6.000158849601058,0.0
1420,perov_1420.cif,0.19779923242,0.0018374654734000001,1.94,True,-0.000184139774318354,ScHgO2S,5.724788696504088,5.724788696504088,0.0
1421,perov_1421.cif,0.203468559802,0.0018374654734000001,1.04,True,3.0997081031641587,CuCoO2S,5.8401682823754175,5.8401682823754175,0.0
1422,perov_1422.cif,0.15327236559000001,0.0036749309468000002,1.92,True,1.921322169974521,AsLiOFN,6.190482444893467,6.190482444893467,0.0
1423,perov_1423.cif,0.312818236067,0.0018374654734000001,2.12,True,2.616506049265954,PbBN3,5.773006217307955,5.773006217307955,0.0
1424,perov_1424.cif,0.09005777247739999,0.0018374654734000001,1.32,True,1.880784003441295,LiAlO2S,5.087335424513411,5.087335424513411,0.0
1425,perov_1425.cif,0.226518057864,0.0018374654734000001,1.08,True,1.9770813218843488,RbSiO2N,5.399946221593084,5.399946221593084,0.0
1426,perov_1426.cif,0.14915907136499998,0.0036749309468000002,1.36,True,-0.007466186186800752,PdCuO2F,6.5183209630589465,6.5183209630589465,0.0
1427,perov_1427.cif,0.056629582102399996,0.0018374654734000001,3.78,True,5.5438258090839945,BMgN3,5.730840989548173,5.730840989548173,0.0
1428,perov_1428.cif,0.19554886329399998,0.0036749309468000002,1.14,True,0.9551631276036296,CsSbOFN,5.706807114636952,5.706807114636952,0.0
1429,perov_1429.cif,0.200946889936,0.0036749309468000002,1.94,True,1.3854801082256911,SiRuO2F,6.612596603178365,6.612596603178365,0.0
1430,perov_1430.cif,0.248600802965,0.0018374654734000001,0.62,True,3.483340215578927,CdFeO3,5.9849832277270245,5.9849832277270245,0.0
1431,perov_1431.cif,0.211362518524,0.0018374654734000001,1.52,True,3.513662405186832,PdNiO3,6.08750769520659,6.08750769520659,0.0
1432,perov_1432.cif,0.19647640668900002,0.0018374654734000001,0.98,True,1.9999999626965912,LaNaO3,5.164726714936953,5.164726714936953,0.0
1433,perov_1433.cif,0.195089183214,0.0018374654734000001,1.36,True,0.0024105948389099296,SnAuO3,6.382720682566039,6.382720682566039,0.0
1434,perov_1434.cif,0.142423582608,0.0018374654734000001,0.12,True,0.9980435528042158,KZrO3,5.188721197668132,5.188721197668132,0.0
1435,perov_1435.cif,0.262163983128,0.0036749309468000002,1.72,True,3.1747407336495748,MoOsO2F,6.460748413549014,6.460748413549014,0.0
1436,perov_1436.cif,0.135025744956,0.0018374654734000001,2.5,True,0.7884093013584033,PdHgO2N,6.255052734435138,6.255052734435138,0.0
1437,perov_1437.cif,0.30535755319,0.0036749309468000002,1.78,True,3.812514621527882,OsGeOFN,6.630852410213533,6.630852410213533,0.0
1438,perov_1438.cif,0.0579528467733,0.0036749309468000002,2.4,True,0.0,PbKOFN,5.5706903262878,5.5706903262878,0.0
1439,perov_1439.cif,0.228262133589,0.0018374654734000001,0.1,True,-3.5861876491161904,CrTiO3,5.594346895663059,5.594346895663059,0.0
1440,perov_1440.cif,0.109642883649,0.0018374654734000001,2.84,True,1.641012960921394,NaCaN3,4.746507316813738,4.746507316813738,0.0
1441,perov_1441.cif,0.353110347204,0.0036749309468000002,1.26,True,2.0236183611808327,ZrTaOFN,6.108478806025644,6.108478806025644,0.0
1442,perov_1442.cif,0.2395807588,0.0018374654734000001,1.66,True,1.839373018904258,CrPdN3,5.763698260668777,5.763698260668777,0.0
1443,perov_1443.cif,0.248938979102,0.0018374654734000001,0.88,True,-2.954168418321004,MnBeO3,6.001016069259473,6.001016069259473,0.0
1444,perov_1444.cif,0.281918456666,0.0018374654734000001,2.44,True,-3.0941170068274686,RePdO2N,5.9337022432938324,5.9337022432938324,0.0
1445,perov_1445.cif,0.24950792478,0.0018374654734000001,2.12,True,3.569509173802232,ReCuO2S,5.759178572654388,5.759178572654388,0.0
1446,perov_1446.cif,0.327923362387,0.0018374654734000001,1.1,True,2.5816909985838947,ScFeON2,5.577341789631971,5.577341789631971,0.0
1447,perov_1447.cif,0.20196275117600002,0.0036749309468000002,0.92,True,-0.95854607878147,BaMgOFN,5.644028988263881,5.644028988263881,0.0
1448,perov_1448.cif,0.279859150516,0.0018374654734000001,0.34,True,0.00015269353990277068,SnWON2,5.961519735228051,5.961519735228051,0.0
1449,perov_1449.cif,0.365768731805,0.0036749309468000002,0.16,False,1.3324699538884295e-15,BaAlO2F,8.759803386972294,2.259803386972294,6.5
1450,perov_1450.cif,0.220368871065,0.0018374654734000001,0.86,True,0.008666463885230513,LiOsO2N,5.709524535622691,5.709524535622691,0.0
1451,perov_1451.cif,0.18458006021499998,0.0018374654734000001,1.04,True,2.000229664850377,CrSnON2,5.7646778000203325,5.7646778000203325,0.0
1452,perov_1452.cif,0.238223588858,0.0036749309468000002,0.84,True,4.1190026974147225,SrFeOFN,5.408380386630203,5.408380386630203,0.0
1453,perov_1453.cif,0.384844829938,0.0018374654734000001,0.78,True,0.0005787865183464193,HfWN3,5.651478211941414,5.651478211941414,0.0
1454,perov_1454.cif,0.197684550611,0.0018374654734000001,2.76,True,0.19325548693464967,VTlN3,5.971667461108291,5.971667461108291,0.0
1455,perov_1455.cif,0.175669617216,0.0018374654734000001,1.08,True,6.852159057402218e-05,RhBiO2S,5.740346694903606,5.740346694903606,0.0
1456,perov_1456.cif,0.25029183345899997,0.0036749309468000002,1.64,True,0.3281759951189365,ScPdO2F,6.1465218800926555,6.1465218800926555,0.0
1457,perov_1457.cif,0.125303382052,0.0018374654734000001,1.5,True,2.9999999911761788,RbBeO3,5.469647937791119,5.469647937791119,0.0
1458,perov_1458.cif,0.295780679033,0.0018374654734000001,0.46,False,-1.2403525476948705e-05,LaScO2S,6.8312922382194134,3.4312922382194135,3.4
1459,perov_1459.cif,0.246899694678,0.0018374654734000001,2.5,True,5.4919947424722615,CsPdN3,5.1841967047984845,5.1841967047984845,0.0
1460,perov_1460.cif,0.33311331200399996,0.0018374654734000001,0.86,True,0.4528383879464074,MoBeO3,6.057997965314858,6.057997965314858,0.0
1461,perov_1461.cif,0.328854321394,0.0018374654734000001,1.28,True,0.63419846129767,NbIrON2,6.107915346409693,6.107915346409693,0.0
1462,perov_1462.cif,0.16732776148700002,0.0018374654734000001,1.08,True,1.3041342520521615,NiBiO2S,5.7668010265239324,5.7668010265239324,0.0
1463,perov_1463.cif,0.199682308552,0.0018374654734000001,0.82,True,0.2614771546050534,CaYO2S,4.772201140562406,4.772201140562406,0.0
1464,perov_1464.cif,0.220824949107,0.0018374654734000001,1.52,True,0.00036906086877408484,YCdO2S,5.489274504496992,5.489274504496992,0.0
1465,perov_1465.cif,0.23894854875799998,0.0036749309468000002,1.42,True,6.768995467254514e-06,TeLiO2F,6.278210954933803,6.278210954933803,0.0
1466,perov_1466.cif,0.29927237296,0.0018374654734000001,1.6,True,-0.05972811475958401,RhBO2N,5.973240790887443,5.973240790887443,0.0
1467,perov_1467.cif,0.28051884930300003,0.0036749309468000002,1.8,True,0.9191051854589708,OsFeOFN,6.4672999215324465,6.4672999215324465,0.0
1468,perov_1468.cif,0.20284651661800002,0.0018374654734000001,0.4,True,0.9998847717049522,CsTiO3,5.0318724940730775,5.0318724940730775,0.0
1469,perov_1469.cif,0.206834082682,0.0018374654734000001,0.9,True,0.005791605995336013,AlTaO2S,5.411701644322407,5.411701644322407,0.0
1470,perov_1470.cif,0.17591481723000002,0.0018374654734000001,0.32,True,2.160084436168786,KMnO3,5.211330861326396,5.211330861326396,0.0
1471,perov_1471.cif,0.28969420712,0.0018374654734000001,1.9,True,-0.964281232360482,PtTeO2N,6.608613916389741,6.608613916389741,0.0
1472,perov_1472.cif,0.28275513890500004,0.0018374654734000001,3.12,True,1.2627147908581409,WTlN3,6.21620961420907,6.21620961420907,0.0
1473,perov_1473.cif,0.279772656003,0.0018374654734000001,1.0,True,-0.00195334801659155,ScGeON2,5.718387997630192,5.718387997630192,0.0
1474,perov_1474.cif,0.27553736965,0.0036749309468000002,0.74,True,-3.708369860665453e-13,SrGeOFN,5.545153705124725,5.545153705124725,0.0
1475,perov_1475.cif,0.268750417565,0.0018374654734000001,1.54,True,0.059362428879165235,NbHfN3,5.544769801929719,5.544769801929719,0.0
1476,perov_1476.cif,0.19774634430399998,0.0018374654734000001,0.44,True,0.0044471178544789325,TlHfO3,6.0331250955026325,6.0331250955026325,0.0
1477,perov_1477.cif,0.267174248738,0.0018374654734000001,0.52,True,0.018728901398240797,ScTiO2S,5.269739895703808,5.269739895703808,0.0
1478,perov_1478.cif,0.07862894613730001,0.0018374654734000001,2.02,True,1.9999543506337023,GeSrO3,5.234010037723147,5.234010037723147,0.0
1479,perov_1479.cif,0.259897522772,0.0036749309468000002,1.1,True,2.9156097178161104,RuWOFN,6.463817132911871,6.463817132911871,0.0
1480,perov_1480.cif,0.174504432919,0.0018374654734000001,1.74,True,3.6489405743564336,AuHfN3,5.966321953124727,5.966321953124727,0.0
1481,perov_1481.cif,0.38059490401900004,0.0018374654734000001,0.66,True,0.0011570016959296936,LaTaO2S,5.34606490819879,5.34606490819879,0.0
1482,perov_1482.cif,0.19489091460799998,0.0018374654734000001,0.48,True,-0.003399487874367049,CuWON2,6.010614817806381,6.010614817806381,0.0
1483,perov_1483.cif,0.263483124395,0.0018374654734000001,1.98,True,0.1872348047068257,YAgN3,5.586700338667411,5.586700338667411,0.0
1484,perov_1484.cif,0.231086294331,0.0036749309468000002,1.08,True,1.0668947683575531,TlNiOFN,6.726064497052362,6.726064497052362,0.0
1485,perov_1485.cif,0.17869229375700002,0.0036749309468000002,2.48,True,4.313102148894067,OsAgOFN,6.584069236445463,6.584069236445463,0.0
1486,perov_1486.cif,0.18917701014600002,0.0036749309468000002,1.54,True,1.813776964276161e-13,AuBeO2F,6.990085936508808,6.990085936508808,0.0
1487,perov_1487.cif,0.227778393897,0.0018374654734000001,0.62,False,0.0007509739261753207,SiTiO3,7.0970880223328825,4.657088022332884,2.4
1488,perov_1488.cif,0.17206270157900003,0.0018374654734000001,1.04,True,0.008796394630984139,CdBiO2S,5.774643486645122,5.774643486645122,0.0
1489,perov_1489.cif,0.155162315945,0.0018374654734000001,1.72,True,-3.591732824759224e-05,BAsO2S,6.037021183630196,6.037021183630196,0.0
1490,perov_1490.cif,0.288200015262,0.0018374654734000001,1.82,True,2.629615174568578,CoIrON2,6.196903055726177,6.196903055726177,0.0
1491,perov_1491.cif,0.15326496965999997,0.0018374654734000001,1.1,True,-0.07203782803380204,AlScO2S,5.194292085845028,5.194292085845028,0.0
1492,perov_1492.cif,0.262699809085,0.0018374654734000001,1.14,True,0.2553477469409539,AsMoON2,6.067934091155673,6.067934091155673,0.0