,id,fermi level,fermi width,e_form,gap is direct,mu_b,formula,vbm,cbm,gap gllbsc
6357,perov_6357.cif,0.164513787546,0.0018374654734000001,1.46,True,8.13689667467088e-05,AuAuO2S,6.51547965004109,6.51547965004109,0.0
6358,perov_6358.cif,0.18881789605000002,0.0018374654734000001,1.08,True,4.000048935927223,MnLiO2S,5.239597840985276,5.239597840985276,0.0
6359,perov_6359.cif,0.332965527559,0.0018374654734000001,-0.3,True,0.9960448108788428,BaVO3,5.284019901821728,5.284019901821728,0.0
6360,perov_6360.cif,0.251349200957,0.0036749309468000002,0.96,True,2.9636302513201547,CaCoOFN,5.576147466805134,5.576147466805134,0.0
6361,perov_6361.cif,0.07098937648369999,0.0018374654734000001,2.02,True,3.974988714209005,AgLiO2S,5.428326488512408,5.428326488512408,0.0
6362,perov_6362.cif,0.279404290801,0.0018374654734000001,1.98,True,-0.5670329276255434,IrPtO2N,6.572100001896968,6.572100001896968,0.0
6363,perov_6363.cif,0.23449448732099998,0.0018374654734000001,1.5,True,-1.594024132935734,CoRuO3,6.073138417799092,6.073138417799092,0.0
6364,perov_6364.cif,0.250107751568,0.0018374654734000001,1.1,True,0.28620082120334445,SbPdO3,6.207222822147223,6.207222822147223,0.0
6365,perov_6365.cif,0.18310496607,0.0036749309468000002,1.24,True,2.489422643070237,CoTeOFN,6.695209688660962,6.695209688660962,0.0
6366,perov_6366.cif,0.287066931457,0.0018374654734000001,1.26,True,1.3433862570344954,SbTiN3,5.776074860536799,5.776074860536799,0.0
6367,perov_6367.cif,0.24528193155900002,0.0018374654734000001,4.36,True,1.3188069448051358,TaRbON2,5.204424377202944,5.204424377202944,0.0
6368,perov_6368.cif,0.21159021009799997,0.0018374654734000001,1.88,True,2.3892085891483106,IrBaO3,5.717579288960183,5.717579288960183,0.0
6369,perov_6369.cif,0.265090685312,0.0018374654734000001,0.48,True,-3.952229329659585,CrWO2N,5.832087026740693,5.832087026740693,0.0
6370,perov_6370.cif,0.178126033905,0.0036749309468000002,1.14,True,4.793655299876951e-13,BeHfO2F,6.292137842470923,6.292137842470923,0.0
6371,perov_6371.cif,0.28659051232099997,0.0036749309468000002,1.26,True,0.3096210133646693,CsOsOFN,5.716189503358482,5.716189503358482,0.0
6372,perov_6372.cif,0.22727286504,0.0018374654734000001,1.9,True,1.9472613640297396,PtBiN3,6.149786657730017,6.149786657730017,0.0
6373,perov_6373.cif,0.24050722896899998,0.0018374654734000001,0.92,True,3.821217965174132,FeAsO3,6.203508281806044,6.203508281806044,0.0
6374,perov_6374.cif,0.0148776640785,0.0036749309468000002,2.1,True,0.0,CdKO2F,5.757738741889592,5.757738741889592,0.0
6375,perov_6375.cif,0.16887870500500002,0.0018374654734000001,1.28,True,2.8527535271158766,TlScO2N,5.966073987469262,5.966073987469262,0.0
6376,perov_6376.cif,0.214382480721,0.0036749309468000002,1.26,True,4.611453274224449,MoSbO2F,6.450143927289014,6.450143927289014,0.0
6377,perov_6377.cif,0.31920007803000006,0.0036749309468000002,1.28,True,1.1710752773559356,NbNiOFN,6.313330962776991,6.313330962776991,0.0
6378,perov_6378.cif,0.141594772822,0.0018374654734000001,1.5,True,-1.0679789155990649,NiLiO2N,5.590217521215278,5.590217521215278,0.0
6379,perov_6379.cif,0.11933916011,0.0018374654734000001,2.04,True,-3.877677667499292,CoYO2N,5.6295891419918584,5.6295891419918584,0.0
6380,perov_6380.cif,0.275807632633,0.0018374654734000001,1.54,True,0.0010388752299093085,ScCuN3,5.648401278783204,5.648401278783204,0.0
6381,perov_6381.cif,0.0956679831123,0.0018374654734000001,1.78,True,1.6959891493349102,RbAgO2S,5.161736527616954,5.161736527616954,0.0
6382,perov_6382.cif,0.0719169145886,0.0036749309468000002,1.68,True,0.0,PdNaOFN,5.912851848388102,5.912851848388102,0.0
6383,perov_6383.cif,0.252950734376,0.0018374654734000001,1.28,True,-0.9919194904585577,WZnO2N,6.044876189920497,6.044876189920497,0.0
6384,perov_6384.cif,0.171013736172,0.0036749309468000002,1.72,True,1.350527114150303,PtScOFN,6.383757126839495,6.383757126839495,0.0
6385,perov_6385.cif,0.163936011732,0.0018374654734000001,0.9,True,1.0043050232680992,LiSbO2N,5.700153086587132,5.700153086587132,0.0
6386,perov_6386.cif,0.11177679830399999,0.0018374654734000001,1.22,True,3.0000177997691013,CrYO3,5.507363098519546,5.507363098519546,0.0
6387,perov_6387.cif,0.261708614033,0.0018374654734000001,1.04,True,1.317707570991118,SrVN3,4.879632843913559,4.879632843913559,0.0
6388,perov_6388.cif,0.239700741256,0.0018374654734000001,1.62,True,0.010382358234551248,IrMgON2,6.029582815810965,6.029582815810965,0.0
6389,perov_6389.cif,0.0878529365328,0.0018374654734000001,1.66,True,-4.97761499452716e-06,SrSrO2S,4.264695870944194,4.264695870944194,0.0
6390,perov_6390.cif,0.185538179796,0.0018374654734000001,1.62,True,1.514140312588249,OsSrO2S,5.099690720663612,5.099690720663612,0.0
6391,perov_6391.cif,0.293146965587,0.0018374654734000001,1.16,True,0.0013336812527136028,TeSbO3,6.473509688666074,6.473509688666074,0.0
6392,perov_6392.cif,0.20065058982500003,0.0036749309468000002,1.68,True,0.023293385312074474,BWO2F,6.447481877712018,6.447481877712018,0.0
6393,perov_6393.cif,0.16997254499699999,0.0036749309468000002,1.16,True,0.0,SnLiO2F,5.978815153961222,5.978815153961222,0.0
6394,perov_6394.cif,0.104607993759,0.0018374654734000001,3.46,True,6.9999880717651335,InKN3,4.91989754086137,4.91989754086137,0.0
6395,perov_6395.cif,0.164078555707,0.0018374654734000001,1.1,True,1.7026782027378076,InLaO3,5.2523143795393565,5.2523143795393565,0.0
6396,perov_6396.cif,0.240936069562,0.0018374654734000001,1.18,True,0.9899724907393156,AuGeO3,6.469395687374866,6.469395687374866,0.0
6397,perov_6397.cif,0.303575811578,0.0018374654734000001,1.96,True,2.6419227285538835,SbCuN3,6.085896987578804,6.085896987578804,0.0
6398,perov_6398.cif,0.23689367953600002,0.0018374654734000001,0.8,True,0.11913677176045745,TiNbN3,5.557717449798165,5.557717449798165,0.0
6399,perov_6399.cif,0.19082815664,0.0018374654734000001,1.0,True,0.5434597214782233,AlVO2S,5.272754779814103,5.272754779814103,0.0
6400,perov_6400.cif,0.0596018114387,0.0036749309468000002,2.76,True,2.0409699119093614,MoRbO2F,5.575248496695638,5.575248496695638,0.0
6401,perov_6401.cif,0.167090827508,0.0018374654734000001,2.04,True,-0.5628573300347386,BeBiON2,6.036432378993683,6.036432378993683,0.0
6402,perov_6402.cif,0.22172580481100002,0.0018374654734000001,1.7,True,2.9904899872920225,CaSnN3,5.1534595763380135,5.1534595763380135,0.0
6403,perov_6403.cif,0.170407400161,0.0018374654734000001,1.6,True,-0.6980281556646518,RhLiO2N,5.564573239844066,5.564573239844066,0.0
6404,perov_6404.cif,0.216009036897,0.0018374654734000001,0.14,True,-3.2034522824814773,CrNbO2N,5.721968450620488,5.721968450620488,0.0
6405,perov_6405.cif,0.221458396113,0.0018374654734000001,2.76,True,2.934727623944627,FeRbN3,5.157853762791065,5.157853762791065,0.0
6406,perov_6406.cif,0.190441448431,0.0018374654734000001,2.32,True,3.3966486344456284,SrCdN3,5.086363462873325,5.086363462873325,0.0
6407,perov_6407.cif,0.0206713913756,0.0018374654734000001,2.7,True,1.6673077373554896,LiRbO2N,4.926986170413548,4.926986170413548,0.0
6408,perov_6408.cif,0.15161790746,0.0018374654734000001,2.28,True,-1.285244288332663e-05,AlTlO3,5.960634073679862,5.960634073679862,0.0
6409,perov_6409.cif,0.114556308759,0.0018374654734000001,2.2,True,0.0011762202228933173,NaCuON2,5.510580288418706,5.510580288418706,0.0
6410,perov_6410.cif,0.10511801778999999,0.0018374654734000001,1.46,True,0.2106856284552698,LiAsO2S,5.6239900085811465,5.6239900085811465,0.0
6411,perov_6411.cif,0.142656347808,0.0018374654734000001,1.3,True,0.5552657646335124,KSiO2S,5.269392283907789,5.269392283907789,0.0
6412,perov_6412.cif,0.1229877463,0.0036749309468000002,3.1,True,1.643034742203174,TaBaOFN,5.745657757093978,5.745657757093978,0.0
6413,perov_6413.cif,0.163148053588,0.0018374654734000001,0.9,False,-2.3475376697020177e-05,ZnMgO2S,6.274849171511409,5.07484917151141,1.2
6414,perov_6414.cif,0.18328526526500002,0.0018374654734000001,1.6,True,-0.2744908112199907,RhZnO2N,6.017146230347339,6.017146230347339,0.0
6415,perov_6415.cif,0.0523119926214,0.0036749309468000002,1.76,True,1.2383885479256772e-13,NaCsO2F,5.167326831182058,5.167326831182058,0.0
6416,perov_6416.cif,0.293739594958,0.0018374654734000001,1.32,True,0.3177021465450273,PbRuN3,5.828449924254223,5.828449924254223,0.0
6417,perov_6417.cif,0.14570225519899999,0.0036749309468000002,2.04,True,0.0,IrLaO2F,6.247665600896884,6.247665600896884,0.0
6418,perov_6418.cif,0.297574810932,0.0018374654734000001,0.58,True,2.996576795380846,ScMnO2N,5.5192841565133826,5.5192841565133826,0.0
6419,perov_6419.cif,0.158828893824,0.0036749309468000002,0.64,True,0.6391914658869027,SnZnO2F,6.4650789045252,6.4650789045252,0.0
6420,perov_6420.cif,0.207429250251,0.0036749309468000002,1.16,False,-5.178799769505773e-15,SiHfOFN,6.4119548377944025,6.011954837794403,0.4
6421,perov_6421.cif,0.224470576842,0.0018374654734000001,1.64,True,-0.031534593658439435,NbCdON2,5.883902981152126,5.883902981152126,0.0
6422,perov_6422.cif,0.450009609323,0.0018374654734000001,1.64,True,-0.0004808443818134708,HfTeN3,5.907258708433548,5.907258708433548,0.0
6423,perov_6423.cif,0.238954581341,0.0018374654734000001,1.52,True,2.3292408435533347,RhTeO3,6.3195353237416745,6.3195353237416745,0.0
6424,perov_6424.cif,0.25298891552700004,0.0018374654734000001,0.8,True,2.7172848886283147,TeCrO2S,5.9087977411848165,5.9087977411848165,0.0
6425,perov_6425.cif,0.24279612624299998,0.0036749309468000002,0.72,True,4.909439411151372e-15,AsWOFN,6.678850657558462,6.678850657558462,0.0
6426,perov_6426.cif,0.240651065755,0.0036749309468000002,1.42,True,8.996037560527792,ReMnO2F,6.1509981851143305,6.1509981851143305,0.0
6427,perov_6427.cif,0.299739895297,0.0018374654734000001,1.16,True,9.57718318304046e-05,YIrO2S,5.698262546828658,5.698262546828658,0.0
6428,perov_6428.cif,0.212986367169,0.0018374654734000001,2.04,True,6.479972282880897,KCoN3,5.252637269388353,5.252637269388353,0.0
6429,perov_6429.cif,0.202121909928,0.0018374654734000001,1.0,True,0.5228045178853638,MgNiO2S,5.662038997536036,5.662038997536036,0.0
6430,perov_6430.cif,0.2430405618,0.0018374654734000001,0.8,True,2.9969708072890966,RuTaO2S,5.789957041760073,5.789957041760073,0.0
6431,perov_6431.cif,0.166684642562,0.0018374654734000001,3.2,True,0.0,MnTlON2,6.0533504354575465,6.0533504354575465,0.0
6432,perov_6432.cif,0.206583325112,0.0018374654734000001,0.8,True,2.577859350866681,FeTaN3,5.770090496651276,5.770090496651276,0.0
6433,perov_6433.cif,0.29012815636399997,0.0036749309468000002,0.6,True,7.185926499967592e-15,CaHfOFN,6.9234286216928576,3.723428621692857,3.2
6434,perov_6434.cif,0.32749432103500004,0.0036749309468000002,0.82,True,1.693075873450734,ScZrO2F,5.904426305913282,5.904426305913282,0.0
6435,perov_6435.cif,0.23750366620900001,0.0036749309468000002,0.8,True,5.999646171503025,CrCrOFN,6.016905619718622,6.016905619718622,0.0
6436,perov_6436.cif,0.18744146844999998,0.0036749309468000002,2.54,True,1.001436166709027,TaCaOFN,5.523283442621804,5.523283442621804,0.0
6437,perov_6437.cif,0.136758242127,0.0018374654734000001,2.44,True,0.0014253103329124948,AgTlON2,6.271390192584562,6.271390192584562,0.0
6438,perov_6438.cif,0.247738592655,0.0036749309468000002,0.52,False,1.2812996972306294e-15,GeTiOFN,6.734027449719871,5.634027449719873,1.1
6439,perov_6439.cif,0.17048677094599998,0.0018374654734000001,1.7,True,-1.1934760372867e-05,BMgO2S,5.63344137831416,5.63344137831416,0.0
6440,perov_6440.cif,0.19301457566100003,0.0036749309468000002,1.5,True,3.0119158405610267,MoInOFN,5.856542287563597,5.856542287563597,0.0
6441,perov_6441.cif,0.24804182535100003,0.0036749309468000002,1.66,True,3.725572100151915,NbTeO2F,6.645606213875738,6.645606213875738,0.0
6442,perov_6442.cif,0.26593100841899997,0.0018374654734000001,1.6,True,0.004311060592822713,YHgO3,5.893444837928281,5.893444837928281,0.0
6443,perov_6443.cif,0.183729464249,0.0036749309468000002,0.62,True,0.023401821646764603,PdVO2F,6.239368538940773,6.239368538940773,0.0
6444,perov_6444.cif,0.271969031316,0.0018374654734000001,0.48,True,-2.3614199199882512e-05,SnMoON2,5.8194155756573975,5.8194155756573975,0.0
6445,perov_6445.cif,0.273517760512,0.0036749309468000002,1.32,True,2.9989113702133787,CoBO2F,6.4179050251512075,6.4179050251512075,0.0
6446,perov_6446.cif,0.180962285131,0.0018374654734000001,1.38,True,-0.00840806520000645,NiZnO2N,6.044876189920497,6.044876189920497,0.0
6447,perov_6447.cif,0.164402582142,0.0036749309468000002,1.28,True,2.867652374274809,BeCoO2F,6.590844169133535,6.590844169133535,0.0
6448,perov_6448.cif,0.190678408802,0.0018374654734000001,2.88,True,0.0,RuMgN3,5.785879743434763,5.785879743434763,0.0
6449,perov_6449.cif,0.26935610490899997,0.0018374654734000001,1.82,True,-3.7142611920969335,ReZrO2N,5.699989083294801,5.699989083294801,0.0
6450,perov_6450.cif,0.29765089461800004,0.0018374654734000001,1.94,True,0.9200176581479944,HgTeN3,6.432343314163367,6.432343314163367,0.0
6451,perov_6451.cif,0.250292830711,0.0018374654734000001,1.3,True,0.02618744072971954,WLiO2N,5.590217521215278,5.590217521215278,0.0
6452,perov_6452.cif,0.229493989118,0.0018374654734000001,1.16,True,0.0,ReGaON2,5.516093636407833,5.516093636407833,0.0
6453,perov_6453.cif,0.119577697072,0.0036749309468000002,1.0,True,0.9996060877998616,HgMgO2F,6.494541414001605,6.494541414001605,0.0
6454,perov_6454.cif,0.20998967587200001,0.0036749309468000002,1.04,True,1.0158579022377021,HgAlOFN,6.251599249921916,6.251599249921916,0.0
6455,perov_6455.cif,0.295820542166,0.0018374654734000001,1.0,True,0.8638580820954793,BiNiO2N,5.949545255086746,5.949545255086746,0.0
6456,perov_6456.cif,0.208549391706,0.0018374654734000001,1.02,True,0.16205697096010674,SiNbON2,5.969062804158711,5.969062804158711,0.0
6457,perov_6457.cif,0.153519358155,0.0018374654734000001,1.6,True,-3.4491384474959066,MnZnO2S,5.6657402173583575,5.6657402173583575,0.0
6458,perov_6458.cif,0.200708409249,0.0018374654734000001,2.04,True,2.5551182293947097,ZnBeON2,6.13315552623896,6.13315552623896,0.0
6459,perov_6459.cif,0.355790117513,0.0018374654734000001,0.92,True,-0.5099097925217656,ScWO3,5.748000726851131,5.748000726851131,0.0
6460,perov_6460.cif,0.162076779802,0.0018374654734000001,1.24,True,0.2521279464408792,AgZnO2S,5.869818377727442,5.869818377727442,0.0
6461,perov_6461.cif,0.24983098603700002,0.0036749309468000002,0.52,True,0.006026810720896947,PtTaO2F,6.697858167386314,6.697858167386314,0.0
6462,perov_6462.cif,0.26542140221,0.0018374654734000001,1.1,True,-2.281665023675127,VMoN3,5.5769155494633935,5.5769155494633935,0.0
6463,perov_6463.cif,0.191209461157,0.0036749309468000002,1.12,True,3.521601063498625,CoNiO2F,6.450484898054111,6.450484898054111,0.0
6464,perov_6464.cif,0.17992487983199998,0.0018374654734000001,0.96,True,2.9704415152347043,PdMnO2S,5.6657402173583575,5.6657402173583575,0.0
6465,perov_6465.cif,0.145031318029,0.0018374654734000001,1.56,True,2.999999972975933,CdLiO3,5.637298478885108,5.637298478885108,0.0
6466,perov_6466.cif,0.26607345347600003,0.0018374654734000001,0.36,True,0.004642294024076677,GeNbO3,6.012298720370548,6.012298720370548,0.0
6467,perov_6467.cif,0.274495339569,0.0018374654734000001,1.06,True,0.4441270547963541,HfNbO2S,5.450532599383879,5.450532599383879,0.0
6468,perov_6468.cif,0.16619780910499998,0.0036749309468000002,1.18,True,1.0268805148442155,AgRhOFN,6.416915323476968,6.416915323476968,0.0
6469,perov_6469.cif,0.18724925260000003,0.0018374654734000001,0.76,True,0.00012232007420214606,PbTeO2S,5.961841922345117,5.961841922345117,0.0
6470,perov_6470.cif,0.333299269181,0.0018374654734000001,1.52,True,2.312038393403856,WMoN3,5.805292455077941,5.805292455077941,0.0
6471,perov_6471.cif,0.205157001575,0.0036749309468000002,1.44,True,4.4382045484212,MnRhOFN,6.193816039957674,6.193816039957674,0.0
6472,perov_6472.cif,0.22879439429600001,0.0018374654734000001,0.62,True,-0.21521558525441015,CaNbON2,5.115278620992512,5.115278620992512,0.0
6473,perov_6473.cif,0.156926784436,0.0036749309468000002,0.86,True,3.0008642978441387,VAsO2F,6.461358090677318,6.461358090677318,0.0
6474,perov_6474.cif,0.38428141908299995,0.0018374654734000001,0.16,True,0.29727528043660456,SrReO3,5.092275121916832,5.092275121916832,0.0
6475,perov_6475.cif,0.138329503145,0.0036749309468000002,1.74,True,0.8935142565851564,GeHgOFN,6.718026153793521,6.718026153793521,0.0
6476,perov_6476.cif,0.26239606524,0.0018374654734000001,1.72,True,-2.8012700163065173e-05,BaAuON2,5.725782950425012,5.725782950425012,0.0
6477,perov_6477.cif,0.20249320812399998,0.0018374654734000001,2.24,True,0.3158133186845138,BBeON2,6.088403599271105,6.088403599271105,0.0
6478,perov_6478.cif,0.280094940366,0.0018374654734000001,0.96,True,-0.20453446613211815,ScBeO3,5.873074299603499,5.873074299603499,0.0
6479,perov_6479.cif,0.176065889434,0.0018374654734000001,1.28,True,1.073733374018197,ZnRhO2N,6.017146230347339,6.017146230347339,0.0
6480,perov_6480.cif,0.195756858682,0.0018374654734000001,1.38,True,0.005228730284866146,ZnRuON2,6.029582815810965,6.029582815810965,0.0
6481,perov_6481.cif,0.316207531609,0.0018374654734000001,-0.04,True,0.3009147071260401,CsWO3,5.2827048145752125,5.2827048145752125,0.0
6482,perov_6482.cif,0.270383757996,0.0036749309468000002,2.1,True,0.0,MnOsO2F,6.399978222365612,6.399978222365612,0.0
6483,perov_6483.cif,0.27951241083,0.0018374654734000001,1.58,True,-0.002306884467869897,SiBO2N,6.0958984225040425,6.0958984225040425,0.0
6484,perov_6484.cif,0.22435769969799998,0.0036749309468000002,0.9,True,0.024833505369290517,AgOsO2F,6.6305034021154805,6.6305034021154805,0.0
6485,perov_6485.cif,0.103520696193,0.0018374654734000001,1.64,True,-0.0011441288765411234,LiHfON2,5.2751757639745485,5.2751757639745485,0.0
6486,perov_6486.cif,0.469232557905,0.0036749309468000002,1.28,True,1.3210137586583028,ZrSiOFN,6.293579036949028,6.293579036949028,0.0
6487,perov_6487.cif,0.273686668164,0.0018374654734000001,1.82,True,0.9001602714164001,RbIrON2,5.486863832851974,5.486863832851974,0.0
6488,perov_6488.cif,0.289471093866,0.0036749309468000002,1.44,True,-2.862400279903201e-15,AsBO2F,6.691982070985715,6.691982070985715,0.0
6489,perov_6489.cif,0.229186419034,0.0036749309468000002,1.3,True,-6.175834958056445e-15,SbPdO2F,6.62259941315668,6.62259941315668,0.0
6490,perov_6490.cif,0.190291331651,0.0036749309468000002,0.72,True,1.983167321029104,NiAlO2F,6.084146714181796,6.084146714181796,0.0
6491,perov_6491.cif,0.328523556254,0.0018374654734000001,1.18,True,2.46593591741744,SbFeON2,6.009333600946057,6.009333600946057,0.0
6492,perov_6492.cif,0.21868967356600003,0.0018374654734000001,0.86,True,3.0617515854404225,TlFeO2S,6.013062847269553,6.013062847269553,0.0
6493,perov_6493.cif,0.10173055232999999,0.0036749309468000002,1.98,True,0.0,NiMgOFN,6.2323640267973826,6.2323640267973826,0.0
6494,perov_6494.cif,0.192868510577,0.0036749309468000002,1.14,True,3.285383729086878,AuCoO2F,6.8098412861683935,6.8098412861683935,0.0
6495,perov_6495.cif,0.21376374329700001,0.0018374654734000001,1.82,True,3.0059163028688864,CsSnON2,5.185077757978039,5.185077757978039,0.0
6496,perov_6496.cif,0.034659778105000004,0.0036749309468000002,2.84,True,0.0,CoSrOFN,5.470861414579671,5.470861414579671,0.0
6497,perov_6497.cif,0.126561698933,0.0036749309468000002,1.9,True,4.2890246618817764,RhMgOFN,6.203773994995493,6.203773994995493,0.0
6498,perov_6498.cif,0.21278657995499997,0.0036749309468000002,0.98,True,2.9357534277834265,RhAlO2F,6.056236606990062,6.056236606990062,0.0
6499,perov_6499.cif,0.25913437642299997,0.0018374654734000001,0.86,True,0.5275785959622858,SbBeO3,6.327972009007702,6.327972009007702,0.0
6500,perov_6500.cif,0.24331273690699998,0.0018374654734000001,1.22,True,0.3176070260544197,AlSiO2S,5.575688007517184,5.575688007517184,0.0
6501,perov_6501.cif,0.108449896571,0.0018374654734000001,1.32,True,1.9999935574852223,AgInO3,5.673171578677006,5.673171578677006,0.0
6502,perov_6502.cif,0.162573963578,0.0018374654734000001,0.8,True,0.99792736131014,BaYO2S,4.964335940121443,4.964335940121443,0.0
6503,perov_6503.cif,0.217103355079,0.0036749309468000002,0.56,True,0.0,TlVOFN,6.461464942647988,6.461464942647988,0.0
6504,perov_6504.cif,0.180390298418,0.0018374654734000001,2.64,True,-0.0013033175785590605,BRuON2,5.985586630052202,5.985586630052202,0.0