,id,fermi level,fermi width,e_form,gap is direct,mu_b,formula,vbm,cbm,gap gllbsc
2522,perov_2522.cif,0.23014152632399998,0.0018374654734000001,2.32,True,3.9996116936556056,RbPtN3,5.494584504324527,5.494584504324527,0.0
2523,perov_2523.cif,0.117838693678,0.0018374654734000001,2.34,True,-0.6567190244100336,CuPbON2,5.86432840027687,5.86432840027687,0.0
2524,perov_2524.cif,0.141925489901,0.0018374654734000001,1.86,True,2.5979945086965133,CrNaON2,5.309459587594825,5.309459587594825,0.0
2525,perov_2525.cif,0.26714362235399997,0.0018374654734000001,1.82,True,1.0633705542230558,RuPtON2,6.306469524407536,6.306469524407536,0.0
2526,perov_2526.cif,0.25371641948199997,0.0018374654734000001,0.66,True,0.3062722145355359,ScHfO2S,5.257463140517132,5.257463140517132,0.0
2527,perov_2527.cif,0.16562268795600002,0.0036749309468000002,1.28,True,-0.1147260430268299,CdPbOFN,6.2867572141605095,6.2867572141605095,0.0
2528,perov_2528.cif,0.140497811922,0.0018374654734000001,2.28,True,0.6735937214263004,SiAgO3,6.1812309471649645,6.1812309471649645,0.0
2529,perov_2529.cif,0.24056221667599997,0.0018374654734000001,0.26,True,1.9999664865003377,MgCrO3,5.6884222600278225,5.6884222600278225,0.0
2530,perov_2530.cif,0.23685905344099997,0.0018374654734000001,1.66,True,2.653107308788329,YMgON2,5.439226571134727,5.439226571134727,0.0
2531,perov_2531.cif,0.230948783774,0.0018374654734000001,1.78,True,1.0531722478677568,AuNiON2,6.322640043075945,6.322640043075945,0.0
2532,perov_2532.cif,0.321709062248,0.0018374654734000001,1.14,True,0.4358059322738903,TiAsON2,5.920954892520447,5.920954892520447,0.0
2533,perov_2533.cif,0.226586030993,0.0018374654734000001,1.7,True,0.00019621964709770628,RbRuON2,5.302228427502483,5.302228427502483,0.0
2534,perov_2534.cif,0.255868111558,0.0036749309468000002,0.82,True,6.279473393732214e-16,BiSbO2F,6.518157473694228,6.518157473694228,0.0
2535,perov_2535.cif,0.187240959963,0.0018374654734000001,1.18,True,1.5145208698920634,RbRhO2N,5.291292079333685,5.291292079333685,0.0
2536,perov_2536.cif,0.236977761353,0.0036749309468000002,0.54,False,3.999998198214328,FeAlO2F,6.437070188754442,5.5370701887544405,0.9
2537,perov_2537.cif,0.139122746955,0.0018374654734000001,0.72,True,-0.7756225993583152,MgGaO3,5.519671540823959,5.519671540823959,0.0
2538,perov_2538.cif,0.292396264745,0.0018374654734000001,1.04,True,0.9427075762295088,TiWN3,5.6646750356939455,5.6646750356939455,0.0
2539,perov_2539.cif,0.130594022299,0.0036749309468000002,2.18,True,0.0,FeMgOFN,6.132922597564638,6.132922597564638,0.0
2540,perov_2540.cif,0.42815021140799997,0.0018374654734000001,0.86,True,0.18969354022078375,BiSiO3,6.0864875870211215,6.0864875870211215,0.0
2541,perov_2541.cif,0.21107973468199998,0.0018374654734000001,1.1,True,-0.016739636506787867,TaCdO3,5.996730095821565,5.996730095821565,0.0
2542,perov_2542.cif,0.157215928467,0.0018374654734000001,1.36,True,-0.2600484319832349,AlInO2S,5.117400564093908,5.117400564093908,0.0
2543,perov_2543.cif,0.261267204445,0.0018374654734000001,1.32,True,-2.7567845906284316,CoSbO2N,6.121627671529746,6.121627671529746,0.0
2544,perov_2544.cif,0.255910541453,0.0018374654734000001,1.54,True,2.573484751893271,MnPtN3,6.02837518600357,6.02837518600357,0.0
2545,perov_2545.cif,0.22086927458299999,0.0018374654734000001,1.62,True,0.0005333095212058937,BeNiN3,6.076456564158647,6.076456564158647,0.0
2546,perov_2546.cif,0.2768550413,0.0018374654734000001,1.62,True,0.5320727982398346,ZnIrON2,6.239546321251634,6.239546321251634,0.0
2547,perov_2547.cif,0.263147542922,0.0018374654734000001,0.94,True,-1.8555827586563696,VNiO2S,5.616000048458693,5.616000048458693,0.0
2548,perov_2548.cif,0.0311160197024,0.0036749309468000002,0.82,True,0.0,LiYO2F,5.632219503062393,5.632219503062393,0.0
2549,perov_2549.cif,0.11997780470899999,0.0036749309468000002,2.04,True,4.146321459562713,RhAgOFN,6.416915323476968,6.416915323476968,0.0
2550,perov_2550.cif,0.21728837594099998,0.0018374654734000001,1.58,True,-0.002613417509002665,CuGeON2,6.064289542445373,6.064289542445373,0.0
2551,perov_2551.cif,0.17873311114,0.0018374654734000001,1.66,True,1.9189201377605207,LiBO2N,5.561982655275863,5.561982655275863,0.0
2552,perov_2552.cif,0.125275917493,0.0018374654734000001,0.54,True,0.0006643734170026503,CuTiO2S,5.588503010667944,5.588503010667944,0.0
2553,perov_2553.cif,0.09091610480000001,0.0018374654734000001,2.48,True,0.00027062963294353665,NaTlON2,5.739263976051447,5.739263976051447,0.0
2554,perov_2554.cif,0.137593871299,0.0036749309468000002,3.26,True,0.0,NbKOFN,5.601845087888137,5.601845087888137,0.0
2555,perov_2555.cif,0.252636114875,0.0036749309468000002,0.66,True,3.7794015268463364e-15,CdGeOFN,6.501122281611416,6.501122281611416,0.0
2556,perov_2556.cif,0.23109986274099997,0.0018374654734000001,2.68,True,0.5072569971391855,GeCsN3,5.218684425643593,5.218684425643593,0.0
2557,perov_2557.cif,0.284765590377,0.0018374654734000001,1.04,True,0.2476520514320839,SnBeO3,6.17745930134122,6.17745930134122,0.0
2558,perov_2558.cif,0.211463667826,0.0036749309468000002,0.8,True,1.7880196249349757e-13,PbAsOFN,6.5163007079236195,6.5163007079236195,0.0
2559,perov_2559.cif,0.22693419792800001,0.0018374654734000001,0.88,True,0.01603819399932149,BaNiO2S,5.294117323536816,5.294117323536816,0.0
2560,perov_2560.cif,0.177671090851,0.0036749309468000002,1.84,True,1.7943923709030754,TiAuO2F,6.516390742501647,6.516390742501647,0.0
2561,perov_2561.cif,0.26503878589,0.0018374654734000001,0.68,True,4.850897479101082,MnWON2,5.7912442613007045,5.7912442613007045,0.0
2562,perov_2562.cif,0.17138772299000002,0.0018374654734000001,2.72,True,1.6648594221829534,PdMgN3,5.772964704450937,5.772964704450937,0.0
2563,perov_2563.cif,0.25762210758299997,0.0036749309468000002,0.88,True,3.9280651101689685e-15,TeGaO2F,6.355542115260267,6.355542115260267,0.0
2564,perov_2564.cif,0.111576215801,0.0018374654734000001,3.64,True,3.9997185241461914,SiSrON2,5.196370986510308,5.196370986510308,0.0
2565,perov_2565.cif,0.382940970726,0.0018374654734000001,0.02,True,-0.0006744369624083207,LaMoN3,5.384370752255181,5.384370752255181,0.0
2566,perov_2566.cif,0.246217895019,0.0036749309468000002,0.74,False,3.862450247227039e-15,BiInOFN,6.118296601132336,5.718296601132336,0.4
2567,perov_2567.cif,0.178164859875,0.0018374654734000001,2.06,True,1.070136193808949,BNiO3,6.04308884774273,6.04308884774273,0.0
2568,perov_2568.cif,0.145407645534,0.0036749309468000002,2.98,True,1.254755181409724,ZrRbO2F,5.498846348693139,5.498846348693139,0.0
2569,perov_2569.cif,0.21077913459199998,0.0036749309468000002,0.96,True,4.852531187713068,RuVO2F,6.2533269973828896,6.2533269973828896,0.0
2570,perov_2570.cif,0.204699582303,0.0018374654734000001,0.88,True,2.297329118050584e-07,BaBaO3,4.981164718441416,4.981164718441416,0.0
2571,perov_2571.cif,0.27343217542,0.0018374654734000001,1.48,True,-7.417872852409556e-05,AsSiO2S,6.163858096351419,6.163858096351419,0.0
2572,perov_2572.cif,0.23226141130800002,0.0018374654734000001,1.56,True,0.9307654167071034,IrIrO2S,6.316733727304458,6.316733727304458,0.0
2573,perov_2573.cif,0.117703098968,0.0036749309468000002,1.42,True,1.3134692963675751,CuPdO2F,6.5183209630589465,6.5183209630589465,0.0
2574,perov_2574.cif,0.293238763107,0.0036749309468000002,1.44,True,3.9327046663522887,TaVOFN,6.094994173780413,6.094994173780413,0.0
2575,perov_2575.cif,0.310493882803,0.0018374654734000001,1.5,True,3.314911674999975,OsWO3,6.203392959955874,6.203392959955874,0.0
2576,perov_2576.cif,0.10160300477800001,0.0036749309468000002,2.3,True,4.386729440456983,MnCsO2F,5.450113508319134,5.450113508319134,0.0
2577,perov_2577.cif,0.205954326202,0.0018374654734000001,1.7,True,-0.0032672092189274357,HfSrO2S,4.744964224657523,4.744964224657523,0.0
2578,perov_2578.cif,0.203835037745,0.0018374654734000001,1.28,True,3.1580817781719537,CuFeON2,5.914711541701165,5.914711541701165,0.0
2579,perov_2579.cif,0.0829167281997,0.0036749309468000002,2.26,True,-1.2311887544484592e-14,AgCsO2F,5.646424863219036,5.646424863219036,0.0
2580,perov_2580.cif,0.23412708863899998,0.0036749309468000002,0.84,True,3.7970199507522517,CdFeOFN,6.3407696357374315,6.3407696357374315,0.0
2581,perov_2581.cif,0.14524748448,0.0018374654734000001,2.78,True,-0.2129771191991057,CaSrON2,4.453108684921651,4.453108684921651,0.0
2582,perov_2582.cif,0.254229305505,0.0036749309468000002,1.14,True,0.7490362927342424,YLaO2F,5.635956878285644,5.635956878285644,0.0
2583,perov_2583.cif,0.256813376978,0.0036749309468000002,1.34,True,-0.21264794971706116,ZrSbO2F,6.361752378237482,6.361752378237482,0.0
2584,perov_2584.cif,0.09291233192810001,0.0036749309468000002,1.84,True,2.667869221591061,AuCdOFN,6.802552953838581,6.802552953838581,0.0
2585,perov_2585.cif,0.200884409001,0.0018374654734000001,1.52,True,-0.0541035659616732,InAuO2N,5.936525997844505,5.936525997844505,0.0
2586,perov_2586.cif,0.220812244974,0.0018374654734000001,0.9,True,-0.2845812839407218,RbWON2,5.278450659935807,5.278450659935807,0.0
2587,perov_2587.cif,0.233511126699,0.0018374654734000001,1.34,True,2.157320915692725,PdCoO2N,6.017146230347339,6.017146230347339,0.0
2588,perov_2588.cif,0.30306516844000003,0.0018374654734000001,0.98,True,3.3737131929678794,MoWON2,5.846234295441625,5.846234295441625,0.0
2589,perov_2589.cif,0.261115128583,0.0018374654734000001,0.96,True,0.09730831110600847,PdCrON2,5.804346757866593,5.804346757866593,0.0
2590,perov_2590.cif,0.22742604750700002,0.0018374654734000001,1.08,True,2.995357639213161,PbHfN3,5.513932465552573,5.513932465552573,0.0
2591,perov_2591.cif,0.10298450561000001,0.0036749309468000002,2.08,True,3.106641200560641,NiAgOFN,6.44648761500729,6.44648761500729,0.0
2592,perov_2592.cif,0.248712735249,0.0036749309468000002,1.46,True,7.726527850936537,WFeO2F,6.3768158911717805,6.3768158911717805,0.0
2593,perov_2593.cif,0.16287578838400002,0.0018374654734000001,0.98,False,4.564129701770849e-05,BeZrO2S,7.1508966134561165,4.3508966134561184,2.8
2594,perov_2594.cif,0.115100901829,0.0036749309468000002,1.54,True,0.0,NiPbO2F,6.3224964176663665,6.3224964176663665,0.0
2595,perov_2595.cif,0.155330001912,0.0018374654734000001,0.98,True,4.6395076672922635e-05,GePbO3,6.0788612135554905,5.878861213555491,0.2
2596,perov_2596.cif,0.308005328494,0.0018374654734000001,0.9,True,2.9819331722668028,TeMnON2,6.0533504354575465,6.0533504354575465,0.0
2597,perov_2597.cif,0.24130059429200001,0.0018374654734000001,1.34,True,1.1411838187252012,AgCrN3,5.761105502866771,5.761105502866771,0.0
2598,perov_2598.cif,0.311584627916,0.0036749309468000002,0.22,True,1.876716151372193e-06,CsTaO2F,5.557170616189634,5.557170616189634,0.0
2599,perov_2599.cif,0.155292816205,0.0018374654734000001,2.18,True,3.999975029678872,AuLiO3,5.9432698216454325,5.9432698216454325,0.0
2600,perov_2600.cif,0.283005463601,0.0018374654734000001,1.56,True,0.9809166670472784,WPdON2,6.002543237890348,6.002543237890348,0.0
2601,perov_2601.cif,0.201245406748,0.0036749309468000002,1.14,True,-6.8466206926745695e-09,AsGaOFN,6.266733019122423,6.266733019122423,0.0
2602,perov_2602.cif,0.130486834379,0.0018374654734000001,1.3,True,-0.5370658851732542,CuHgO2S,6.071077415402119,6.071077415402119,0.0
2603,perov_2603.cif,0.285160534994,0.0018374654734000001,0.92,True,1.0111276734826262,ScCoO2S,5.507050409834051,5.507050409834051,0.0
2604,perov_2604.cif,0.14267361236099999,0.0018374654734000001,2.14,True,0.0014617436114132414,MgAuON2,6.123703797156303,6.123703797156303,0.0
2605,perov_2605.cif,0.08883124846589999,0.0018374654734000001,1.88,True,1.776735003106069,CaNaO2N,4.813692908376822,4.813692908376822,0.0
2606,perov_2606.cif,0.19344013052900003,0.0018374654734000001,1.38,True,0.4511217295439671,SbHgO3,6.4085449382778545,6.4085449382778545,0.0
2607,perov_2607.cif,0.132675054351,0.0018374654734000001,1.5,True,0.0,RbAuO3,5.651390533858197,5.651390533858197,0.0
2608,perov_2608.cif,0.19894829868099997,0.0018374654734000001,1.76,True,3.173143455342029,MoAuO3,6.2592899478533255,6.2592899478533255,0.0
2609,perov_2609.cif,0.28195992000799996,0.0018374654734000001,1.22,True,0.2930889779745556,NiSiN3,6.041330183527848,6.041330183527848,0.0
2610,perov_2610.cif,0.11778588804300001,0.0036749309468000002,1.3,True,1.1304961055985672,NaRhOFN,5.872441328391687,5.872441328391687,0.0
2611,perov_2611.cif,0.171046250894,0.0018374654734000001,2.06,True,4.35213048839927,AgGaN3,5.5901985883344905,5.5901985883344905,0.0
2612,perov_2612.cif,0.330485815525,0.0036749309468000002,0.92,True,4.729425195331972,CrSiO2F,6.365581969301755,6.365581969301755,0.0
2613,perov_2613.cif,0.329263974762,0.0018374654734000001,1.42,True,-1.8506088306162631,MoNiO2N,5.887464878242548,5.887464878242548,0.0
2614,perov_2614.cif,0.186544728921,0.0036749309468000002,1.42,True,-5.073428227361248e-06,SbLaOFN,6.085633019113506,6.085633019113506,0.0
2615,perov_2615.cif,0.115769502943,0.0036749309468000002,0.94,True,-0.6095627913523205,GaMgO2F,5.889038391960495,5.889038391960495,0.0
2616,perov_2616.cif,0.14801720850400002,0.0018374654734000001,2.0,True,-0.932689771149955,SiNaO2N,5.617139831272688,5.617139831272688,0.0
2617,perov_2617.cif,0.125241927645,0.0018374654734000001,2.58,True,0.3242020647793425,SnCsO2S,5.061259226749608,5.061259226749608,0.0
2618,perov_2618.cif,0.287248145223,0.0036749309468000002,1.54,True,4.266141715419507,WGeO2F,6.538080116044027,6.538080116044027,0.0
2619,perov_2619.cif,0.20547759664,0.0036749309468000002,0.96,True,-0.04242562575685363,GaAlOFN,5.6687463589915765,5.6687463589915765,0.0
2620,perov_2620.cif,0.18642849824000002,0.0018374654734000001,1.12,True,0.6750327383215264,SnPbO2N,5.857448569618347,5.857448569618347,0.0
2621,perov_2621.cif,0.0753255700607,0.0036749309468000002,1.04,True,-1.380026494051921,LiNiO2F,6.006368465143619,6.006368465143619,0.0
2622,perov_2622.cif,0.40986115950999996,0.0018374654734000001,1.22,True,1.0026734319034496,TaReN3,5.7558079191987686,5.7558079191987686,0.0
2623,perov_2623.cif,0.23793385499699998,0.0018374654734000001,2.0,True,-0.12090162899802305,ScHgO3,5.94785509817004,5.94785509817004,0.0
2624,perov_2624.cif,0.12808011265,0.0036749309468000002,1.56,True,2.412765899810971,RhPbO2F,6.2934929170891865,6.2934929170891865,0.0
2625,perov_2625.cif,0.309794424431,0.0018374654734000001,0.52,True,3.6698307252460585,BiFeO3,5.8959060811495165,5.8959060811495165,0.0
2626,perov_2626.cif,0.0866703758685,0.0018374654734000001,1.46,True,0.94544899706111,NaZnO2S,5.371765450201114,5.371765450201114,0.0
2627,perov_2627.cif,0.157113472102,0.0018374654734000001,1.4,True,-4.229064035821309,MnAuO3,6.200414687209265,6.200414687209265,0.0
2628,perov_2628.cif,0.190231053057,0.0018374654734000001,0.82,True,0.8049777884189845,GeSnO2N,6.0571751241746785,6.0571751241746785,0.0
2629,perov_2629.cif,0.140205538595,0.0018374654734000001,2.08,True,3.864948667054125,AgScN3,5.6382786307663455,5.6382786307663455,0.0
2630,perov_2630.cif,0.137198187065,0.0018374654734000001,1.0,True,0.22068323131105672,MgBiO2S,5.585353760925035,5.585353760925035,0.0
2631,perov_2631.cif,0.22314209504299998,0.0018374654734000001,1.36,True,0.6022322989604838,PtSnON2,6.249388008464418,6.249388008464418,0.0
2632,perov_2632.cif,-0.0165996239453,0.0036749309468000002,2.36,True,0.0,LiSrOFN,5.094192141681485,5.094192141681485,0.0
2633,perov_2633.cif,0.202303275739,0.0018374654734000001,1.2,True,-1.4822643344259308,VGaO2N,5.436449629058528,5.436449629058528,0.0
2634,perov_2634.cif,0.0653501875471,0.0036749309468000002,2.52,True,0.0,SrKOFN,4.8766893967586435,4.8766893967586435,0.0
2635,perov_2635.cif,0.143507342166,0.0018374654734000001,2.18,True,-2.8987180437312083e-05,BAgO2S,5.826987948557532,5.826987948557532,0.0
2636,perov_2636.cif,0.27736150554600003,0.0036749309468000002,2.18,True,0.0,OsAsOFN,6.821391395660733,6.821391395660733,0.0
2637,perov_2637.cif,0.301472480658,0.0018374654734000001,3.18,True,-0.13930217147938956,ZrBaN3,5.185228292694708,5.185228292694708,0.0
2638,perov_2638.cif,0.133677004821,0.0036749309468000002,1.38,True,0.6865470033104336,HgPbOFN,6.496508996107028,6.496508996107028,0.0
2639,perov_2639.cif,0.305137499078,0.0018374654734000001,1.6,True,3.4891483730624313,OsWON2,6.1168110708229735,6.1168110708229735,0.0
2640,perov_2640.cif,0.0810277801567,0.0036749309468000002,2.6,True,-0.8055490629944656,BeCdOFN,6.583790221674259,6.583790221674259,0.0
2641,perov_2641.cif,0.21802184729600002,0.0018374654734000001,0.78,True,1.0566390083614865,TiHfO2S,5.291645745744192,5.291645745744192,0.0
2642,perov_2642.cif,0.27847517531599997,0.0018374654734000001,2.0,True,5.210336843646962,ReTeO3,6.231897895041853,6.231897895041853,0.0
2643,perov_2643.cif,0.19457703320099998,0.0036749309468000002,2.6,True,0.0,TaNaOFN,5.816768324360258,5.816768324360258,0.0
2644,perov_2644.cif,0.17289178450599998,0.0018374654734000001,1.32,True,-3.2862176410975668,FeLiO2N,5.5010219579199795,5.5010219579199795,0.0
2645,perov_2645.cif,0.179189938354,0.0018374654734000001,1.66,True,4.7169245609324095,CoHfON2,5.665227133095182,5.665227133095182,0.0
2646,perov_2646.cif,0.137944714566,0.0018374654734000001,1.3,True,-3.532733484832661e-05,ZnAgO2S,5.869818377727442,5.869818377727442,0.0
2647,perov_2647.cif,0.211065925706,0.0036749309468000002,1.0,True,0.03728201454490331,NaOsO2F,6.0679065008335975,6.0679065008335975,0.0
2648,perov_2648.cif,0.223416120748,0.0036749309468000002,0.94,True,-3.290146223613798e-14,SrAsOFN,5.704494902267918,5.704494902267918,0.0
2649,perov_2649.cif,0.282525552712,0.0018374654734000001,1.3,True,-3.9013164141137784,CrTeO2N,6.096041705382657,6.096041705382657,0.0
2650,perov_2650.cif,0.09291898625910001,0.0018374654734000001,1.26,True,1.9999269236115504,KInO2S,4.836280475117436,4.836280475117436,0.0
2651,perov_2651.cif,0.308761530759,0.0018374654734000001,1.06,True,0.00039970606635719713,ScAsON2,5.882707119826852,5.882707119826852,0.0
2652,perov_2652.cif,0.20209424636300002,0.0018374654734000001,2.76,True,3.5978975484241025e-05,SiKN3,5.3604976536854565,5.3604976536854565,0.0
2653,perov_2653.cif,0.14745304319900002,0.0018374654734000001,1.4,True,0.2553677851089624,CuBiO3,6.013134981439188,6.013134981439188,0.0
2654,perov_2654.cif,0.165244919335,0.0018374654734000001,0.9,True,0.950765712257553,SnScO2S,5.507050409834051,5.507050409834051,0.0
2655,perov_2655.cif,0.105901983387,0.0018374654734000001,4.06,True,0.2328730790738796,PdRbON2,5.290392978118997,5.290392978118997,0.0
2656,perov_2656.cif,0.283469531318,0.0018374654734000001,1.42,True,0.0033043913655994572,RuGeN3,6.027187686598973,6.027187686598973,0.0
2657,perov_2657.cif,0.190043357626,0.0018374654734000001,2.44,True,2.184601797666197,ZnLaN3,5.5283309932419415,5.5283309932419415,0.0
2658,perov_2658.cif,0.247421715585,0.0018374654734000001,1.64,True,0.478775946901493,GeSbN3,6.118156199963269,6.118156199963269,0.0
2659,perov_2659.cif,0.273952358694,0.0018374654734000001,0.72,True,-0.0036465130034998962,YBeO3,5.819348125077336,5.819348125077336,0.0
2660,perov_2660.cif,0.162071031993,0.0018374654734000001,1.4,True,-0.00019674931016369906,PbYON2,5.4792462170518315,5.4792462170518315,0.0
2661,perov_2661.cif,0.238143174206,0.0018374654734000001,1.28,True,-0.33350002583322297,CsPtO3,5.537794654168111,5.537794654168111,0.0
2662,perov_2662.cif,0.183890103028,0.0018374654734000001,1.46,True,5.325225823476278,FeZnO3,5.990377543136872,5.990377543136872,0.0
2663,perov_2663.cif,0.189464838993,0.0018374654734000001,1.9,True,1.6118943330155258,NaCoN3,5.42729351769148,5.42729351769148,0.0
2664,perov_2664.cif,0.109056765963,0.0036749309468000002,1.36,True,0.07073058496176897,HgAgO2F,6.7176725573951135,6.7176725573951135,0.0
2665,perov_2665.cif,0.147748051923,0.0018374654734000001,0.76,True,-0.0004574717003633794,AuZrO2S,5.941984393168863,5.941984393168863,0.0
2666,perov_2666.cif,0.373075597297,0.0036749309468000002,1.04,True,1.7624318146544058,ZrCrO2F,6.033051062190046,6.033051062190046,0.0
2667,perov_2667.cif,0.254303190967,0.0018374654734000001,1.62,True,2.3653027936976763,PdSbON2,6.1205874789278605,6.1205874789278605,0.0
2668,perov_2668.cif,0.270651251099,0.0018374654734000001,0.96,True,-0.0010604888079347073,BiBiO2N,5.868966105806298,5.868966105806298,0.0