,id,fermi level,fermi width,e_form,gap is direct,mu_b,formula,vbm,cbm,gap gllbsc
7240,perov_7240.cif,0.289585525197,0.0036749309468000002,0.64,True,-0.13323590241928654,BaGeOFN,5.879420853755474,5.879420853755474,0.0
7241,perov_7241.cif,0.237688820383,0.0018374654734000001,4.68,True,0.0,IrCsN3,5.376723717802683,5.376723717802683,0.0
7242,perov_7242.cif,0.37554695081100004,0.0018374654734000001,0.26,True,0.004504214028454356,CaReO2N,5.153927242218058,5.153927242218058,0.0
7243,perov_7243.cif,0.245434895284,0.0018374654734000001,1.06,True,0.5052785689966512,ScBeO2S,5.652812452415526,5.652812452415526,0.0
7244,perov_7244.cif,0.21450304797000003,0.0018374654734000001,1.42,True,0.00024184100209012627,PtBiO2N,6.236835307823262,6.236835307823262,0.0
7245,perov_7245.cif,0.16453405534,0.0036749309468000002,0.98,True,-0.03493850387016663,NaSbOFN,6.015522326878696,6.015522326878696,0.0
7246,perov_7246.cif,0.270004494815,0.0036749309468000002,1.24,True,1.9815682520914333,LaLiOFN,5.531854020322691,5.531854020322691,0.0
7247,perov_7247.cif,0.27433113894,0.0018374654734000001,1.72,True,0.40702477727104736,AsGeN3,6.2276957432636335,6.2276957432636335,0.0
7248,perov_7248.cif,0.0652362840626,0.0018374654734000001,1.46,True,-1.2346243256121427,LiCuO3,5.649966693157584,5.649966693157584,0.0
7249,perov_7249.cif,0.123014012716,0.0018374654734000001,1.38,True,2.9867590632930248,NaNbN3,5.349357423874216,5.349357423874216,0.0
7250,perov_7250.cif,0.0382696659164,0.0018374654734000001,4.14,True,0.0,CsKN3,4.589575755140072,4.589575755140072,0.0
7251,perov_7251.cif,0.15406440783,0.0018374654734000001,1.82,True,-1.4414926621757642,CdYON2,5.623563991797759,5.623563991797759,0.0
7252,perov_7252.cif,0.171119236963,0.0018374654734000001,1.02,True,1.1325616858703675,NiTeO2S,6.1105608270803895,6.1105608270803895,0.0
7253,perov_7253.cif,-0.051350066416600004,0.0036749309468000002,2.86,True,0.0,NaRbOFN,5.199578829222418,5.199578829222418,0.0
7254,perov_7254.cif,0.177914966575,0.0018374654734000001,1.1,True,0.0038178382926830072,RhTeO2S,6.082529549121907,6.082529549121907,0.0
7255,perov_7255.cif,0.145340376789,0.0018374654734000001,3.12,True,1.2886758546340644,CaRbN3,4.562977782482055,4.562977782482055,0.0
7256,perov_7256.cif,0.20299050919199998,0.0018374654734000001,0.46,True,3.0003290740599025,FeNbO2S,5.644081449327098,5.644081449327098,0.0
7257,perov_7257.cif,0.247688548675,0.0018374654734000001,0.16,True,3.4994406045398034,SrFeO3,5.1049111957503,5.1049111957503,0.0
7258,perov_7258.cif,0.175404850603,0.0036749309468000002,0.48,True,4.000429359203373,CrScO2F,5.930154628516491,5.930154628516491,0.0
7259,perov_7259.cif,0.208968809133,0.0018374654734000001,1.84,True,0.8650278538034043,PtPtO3,6.6745050162164095,6.6745050162164095,0.0
7260,perov_7260.cif,0.152897255599,0.0018374654734000001,1.4,True,7.463428831400165e-05,GeAuO2S,6.226769598958566,6.226769598958566,0.0
7261,perov_7261.cif,0.22471324596900003,0.0018374654734000001,1.62,True,4.812313612147875,FeSnN3,5.825316741460862,5.825316741460862,0.0
7262,perov_7262.cif,0.133145337974,0.0036749309468000002,1.72,True,2.7409656928835378,VAgO2F,6.2365618043187805,6.2365618043187805,0.0
7263,perov_7263.cif,0.28930024011,0.0018374654734000001,1.46,True,0.0002736214288496797,ScPtO2N,5.983360982100461,5.983360982100461,0.0
7264,perov_7264.cif,0.281045979042,0.0018374654734000001,1.7,True,0.0029357051724687717,AgIrN3,6.193062914105983,6.193062914105983,0.0
7265,perov_7265.cif,0.176923047462,0.0036749309468000002,2.1,True,4.004154719926756,ReYOFN,5.92301775436742,5.92301775436742,0.0
7266,perov_7266.cif,0.218043379025,0.0036749309468000002,2.04,True,4.807367817177983,RePtO2F,6.668191290414237,6.668191290414237,0.0
7267,perov_7267.cif,0.18417291484,0.0018374654734000001,1.18,True,0.025602969062390454,HgZrON2,5.9666029281535184,5.9666029281535184,0.0
7268,perov_7268.cif,0.218013295441,0.0018374654734000001,1.86,True,0.915221455527524,ZnAlN3,5.596205515687591,5.596205515687591,0.0
7269,perov_7269.cif,-0.04344096255890001,0.0018374654734000001,2.84,True,0.0,AgKO2S,5.196557470236017,5.196557470236017,0.0
7270,perov_7270.cif,0.206709134653,0.0018374654734000001,1.68,True,1.0821290712466904,IrPbO3,6.159921212022676,6.159921212022676,0.0
7271,perov_7271.cif,0.211457246338,0.0036749309468000002,2.32,True,0.525948968376678,BeIrO2F,6.882648710636133,6.882648710636133,0.0
7272,perov_7272.cif,0.318839332806,0.0018374654734000001,0.74,True,0.0006618251828101049,LaRhO2S,5.397232752023678,5.397232752023678,0.0
7273,perov_7273.cif,0.0838278726019,0.0036749309468000002,3.26,True,2.434037236439716,MoCsOFN,5.4633341992826345,5.4633341992826345,0.0
7274,perov_7274.cif,0.0986784270809,0.0036749309468000002,1.88,True,2.1490177027323543,AuHgOFN,7.029513778831045,7.029513778831045,0.0
7275,perov_7275.cif,0.126257919711,0.0018374654734000001,1.5,True,0.0,CsGaO2S,4.770840375829956,4.770840375829956,0.0
7276,perov_7276.cif,0.17052965020599997,0.0018374654734000001,0.4,True,0.7113272531713476,CuVO3,5.855892407563545,5.855892407563545,0.0
7277,perov_7277.cif,0.18996004926399998,0.0036749309468000002,0.92,True,1.1959113564630089e-11,BaAgO2F,5.879111396484692,5.879111396484692,0.0
7278,perov_7278.cif,0.29132926007,0.0018374654734000001,2.1,True,0.8833625780462508,MgBN3,5.730840989548173,5.730840989548173,0.0
7279,perov_7279.cif,0.231026718071,0.0036749309468000002,1.02,True,1.046681991478497,PtCrO2F,6.568826080043486,6.568826080043486,0.0
7280,perov_7280.cif,0.31949486198399996,0.0036749309468000002,0.84,True,0.4152850815524225,LaZnOFN,5.9817659199592494,5.9817659199592494,0.0
7281,perov_7281.cif,0.212524639808,0.0018374654734000001,1.08,True,3.9999999745132575,RuHfO3,5.79789524385331,5.79789524385331,0.0
7282,perov_7282.cif,0.284561182324,0.0018374654734000001,0.76,True,1.0913585873923883,YCoO2S,5.456672577654557,5.456672577654557,0.0
7283,perov_7283.cif,0.257188734978,0.0018374654734000001,1.56,True,-1.906353566246632,WTeO2S,6.1105608270803895,6.1105608270803895,0.0
7284,perov_7284.cif,0.312163565166,0.0018374654734000001,0.82,True,4.157612323286221,CrReON2,5.684734969765273,5.684734969765273,0.0
7285,perov_7285.cif,0.241274987346,0.0018374654734000001,0.84,True,1.3294599672891607,CaTaN3,5.104602796044248,5.104602796044248,0.0
7286,perov_7286.cif,0.191018103656,0.0018374654734000001,1.16,True,0.5031436105965916,KOsO2S,5.297865305127859,5.297865305127859,0.0
7287,perov_7287.cif,0.186740522249,0.0018374654734000001,1.0,False,0.0013281795875226265,AlScO3,5.8066876861401004,4.9866876861401,0.8
7288,perov_7288.cif,0.22817958618700002,0.0018374654734000001,1.46,True,0.1825713148655765,PdRuO3,6.114930011405475,6.114930011405475,0.0
7289,perov_7289.cif,0.16126574817,0.0018374654734000001,2.6,True,-1.4126007830574094,RuYN3,5.601718567093244,5.601718567093244,0.0
7290,perov_7290.cif,0.0467623895289,0.0036749309468000002,0.68,True,0.0,NaInO2F,5.539230623023826,5.539230623023826,0.0
7291,perov_7291.cif,0.283344190212,0.0018374654734000001,1.16,True,2.574526674835825,IrMnO2N,6.062359854938544,6.062359854938544,0.0
7292,perov_7292.cif,0.209318765962,0.0036749309468000002,1.26,True,0.9932587562995504,ScLaO2F,5.687989923285969,5.687989923285969,0.0
7293,perov_7293.cif,0.283811700727,0.0036749309468000002,1.0,True,2.859357245542572,VGeOFN,6.236890076614522,6.236890076614522,0.0
7294,perov_7294.cif,0.151649417154,0.0036749309468000002,1.84,True,1.0044677298060891,AlLiO2F,5.639264202393044,5.639264202393044,0.0
7295,perov_7295.cif,0.13461732021,0.0018374654734000001,1.02,True,1.289903275599636,KAlO2N,5.024454900235312,5.024454900235312,0.0
7296,perov_7296.cif,0.0730917521518,0.0018374654734000001,2.86,True,0.0,NaBaON2,4.9724301418143835,4.9724301418143835,0.0
7297,perov_7297.cif,0.0167105062415,0.0036749309468000002,2.26,True,0.0,ZnSrOFN,5.508508509242437,5.508508509242437,0.0
7298,perov_7298.cif,0.11901716840900001,0.0018374654734000001,1.12,True,0.6999028242201871,RbAsO2S,5.347790837503848,5.347790837503848,0.0
7299,perov_7299.cif,0.20778183879,0.0018374654734000001,2.68,True,-4.47740663148581,ReLaO2N,5.4910466807165905,5.4910466807165905,0.0
7300,perov_7300.cif,0.22094225865800002,0.0018374654734000001,1.46,True,1.6644395925492468,TiRuO2S,5.5934838590505125,5.5934838590505125,0.0
7301,perov_7301.cif,0.254950583216,0.0018374654734000001,0.64,True,0.4074656557191485,TeTaO2S,6.0248648278973045,6.0248648278973045,0.0
7302,perov_7302.cif,0.105504970379,0.0018374654734000001,1.98,True,-0.1811063373139536,PdYO2N,5.668328502995636,5.668328502995636,0.0
7303,perov_7303.cif,0.043261099978999996,0.0018374654734000001,2.3,True,0.0,RbRbO2N,4.685017480195187,4.685017480195187,0.0
7304,perov_7304.cif,0.18824000124200002,0.0036749309468000002,0.48,True,-1.9263787700276667e-14,AuTiOFN,6.470755720700534,6.470755720700534,0.0
7305,perov_7305.cif,0.264826605474,0.0018374654734000001,1.24,True,0.7988951679123241,MgIrO3,6.114930011405474,6.114930011405474,0.0
7306,perov_7306.cif,0.253236910619,0.0036749309468000002,1.42,True,0.0,IrZrO2F,6.485398466243107,6.485398466243107,0.0
7307,perov_7307.cif,0.06796743230669999,0.0018374654734000001,1.68,True,0.8174767581417584,LiAgO2S,5.428326488512408,5.428326488512408,0.0
7308,perov_7308.cif,0.21847218132,0.0036749309468000002,0.88,True,0.341750710215706,BaPbOFN,5.685555488162758,5.685555488162758,0.0
7309,perov_7309.cif,0.255714585946,0.0018374654734000001,1.08,True,-1.0627174888241515,RuCrO2S,5.678415378133723,5.678415378133723,0.0
7310,perov_7310.cif,0.244192393889,0.0036749309468000002,1.1,True,5.611295652039161,VFeOFN,6.083054818256262,6.083054818256262,0.0
7311,perov_7311.cif,0.119105351828,0.0018374654734000001,1.22,True,1.0063207899724491,CuCdO2S,5.875061477152985,5.875061477152985,0.0
7312,perov_7312.cif,-0.0198916804089,0.0036749309468000002,3.42,True,0.0,BSrOFN,5.46831445750956,5.46831445750956,0.0
7313,perov_7313.cif,0.159847003346,0.0018374654734000001,1.62,True,3.999998127870159,PbLiO2N,5.454162738272501,5.454162738272501,0.0
7314,perov_7314.cif,0.26070658606400005,0.0018374654734000001,1.96,True,0.0016081651379451507,PtAuN3,6.581529741442982,6.581529741442982,0.0
7315,perov_7315.cif,0.0226942320747,0.0018374654734000001,2.92,True,0.0,NaCaON2,4.779982072194937,4.779982072194937,0.0
7316,perov_7316.cif,0.329432837445,0.0018374654734000001,0.1,False,-1.7796957095205215e-06,SrSiO3,7.969924282735776,2.5699242827357747,5.4
7317,perov_7317.cif,0.20553616294,0.0018374654734000001,1.44,True,-0.8301836062566673,CoRhO2N,5.976022925671762,5.976022925671762,0.0
7318,perov_7318.cif,0.24287963273200003,0.0018374654734000001,1.74,True,2.1014843932425875,CoRuON2,5.988374515113428,5.988374515113428,0.0
7319,perov_7319.cif,0.24520174995299998,0.0036749309468000002,0.76,True,4.753928814516441,CrTaOFN,6.135096279966997,6.135096279966997,0.0
7320,perov_7320.cif,0.311328966841,0.0018374654734000001,0.94,True,2.1211980083535304e-07,ZrSnON2,6.539667408313299,4.9396674083133,1.6
7321,perov_7321.cif,0.35305988644599995,0.0018374654734000001,1.68,True,1.8584439047784571,TeCoN3,6.187693688343173,6.187693688343173,0.0
7322,perov_7322.cif,0.27289320155900004,0.0018374654734000001,1.4,True,-3.378653349091301e-05,AlBO2S,5.46095417651143,5.46095417651143,0.0
7323,perov_7323.cif,0.363351575867,0.0018374654734000001,-0.34,True,0.31403917437861395,BaNbO3,5.3965467389238215,5.3965467389238215,0.0
7324,perov_7324.cif,0.24392833757500001,0.0036749309468000002,0.54,True,0.0527825580746928,InMoOFN,5.856542287563597,5.856542287563597,0.0
7325,perov_7325.cif,0.240802661314,0.0036749309468000002,1.6,True,1.1713845284868218,CsSiOFN,5.6854682268342325,5.6854682268342325,0.0
7326,perov_7326.cif,0.135643210451,0.0018374654734000001,1.1,True,0.0014469652124873278,GaBiO2S,5.410961295672642,5.410961295672642,0.0
7327,perov_7327.cif,0.36186480727700004,0.0018374654734000001,0.76,True,0.16876323062253634,LaAlN3,5.178727287209876,5.178727287209876,0.0
7328,perov_7328.cif,0.270779812168,0.0036749309468000002,1.06,True,3.017154195967379e-14,BiRhO2F,6.363121147843593,6.363121147843593,0.0
7329,perov_7329.cif,0.206550208908,0.0018374654734000001,0.68,True,1.076020263888875,RbSbO2N,5.420213478741659,5.420213478741659,0.0
7330,perov_7330.cif,0.244841143797,0.0018374654734000001,1.1,True,-0.0019782692164254188,TiBeO2S,5.689565512079303,5.689565512079303,0.0
7331,perov_7331.cif,0.326950607296,0.0036749309468000002,1.24,True,0.09553607897063544,BiOsOFN,6.483151337047665,6.483151337047665,0.0
7332,perov_7332.cif,0.25826197901000003,0.0018374654734000001,0.74,True,-7.700591559967048e-07,HgWON2,6.1972268736229,6.1972268736229,0.0
7333,perov_7333.cif,0.291156891963,0.0018374654734000001,0.72,True,1.9997880857240649,LaMgO2N,5.417919086267307,5.417919086267307,0.0
7334,perov_7334.cif,0.199017666259,0.0036749309468000002,1.2,True,-1.1675464950583307e-14,InPtO2F,6.3336128664748905,6.3336128664748905,0.0
7335,perov_7335.cif,0.320708268594,0.0018374654734000001,1.4,True,-4.306865525951537,ReWO2N,5.92030774491029,5.92030774491029,0.0
7336,perov_7336.cif,0.0915903612702,0.0036749309468000002,0.74,True,0.0,MgMgO2F,6.0788390331074424,6.0788390331074424,0.0
7337,perov_7337.cif,0.275593424162,0.0018374654734000001,0.72,False,1.4343308636810544e-05,AsGeO2N,6.620847176445652,6.010847176445652,0.6
7338,perov_7338.cif,0.196062429608,0.0036749309468000002,0.96,True,0.8115885102386979,MgAlOFN,5.851447102614652,5.851447102614652,0.0
7339,perov_7339.cif,0.319063232053,0.0018374654734000001,1.52,True,-0.003814542202054783,SbBON2,6.075927257499346,6.075927257499346,0.0
7340,perov_7340.cif,0.16896511302099998,0.0018374654734000001,2.4,True,0.3679539099841983,LiBeN3,5.632136368405168,5.632136368405168,0.0
7341,perov_7341.cif,0.05557109697430001,0.0018374654734000001,3.84,True,0.0,RuRbO2S,5.175612363718127,5.175612363718127,0.0
7342,perov_7342.cif,0.115548317993,0.0036749309468000002,2.34,True,1.5726357228477656,BNiO2F,6.447481877712018,6.447481877712018,0.0
7343,perov_7343.cif,0.30136181671100004,0.0018374654734000001,1.68,True,4.024827615069406,RuAsO2N,6.28814502416664,6.28814502416664,0.0
7344,perov_7344.cif,0.233174198059,0.0018374654734000001,2.06,True,0.3199548850739013,BReN3,5.808192203005617,5.808192203005617,0.0
7345,perov_7345.cif,0.209505314835,0.0036749309468000002,1.26,True,1.0418028076372714,AuIrO2F,7.111341756096366,7.111341756096366,0.0
7346,perov_7346.cif,0.0892283863806,0.0036749309468000002,2.84,True,0.938276480671103,BeHgOFN,6.80345223245586,6.80345223245586,0.0
7347,perov_7347.cif,0.182785561736,0.0018374654734000001,1.78,True,0.6278039261180748,GaAuON2,5.93250233573183,5.93250233573183,0.0
7348,perov_7348.cif,0.350162780867,0.0018374654734000001,0.72,True,0.004371923722910509,HfWON2,5.691335276949352,5.691335276949352,0.0
7349,perov_7349.cif,0.104777483133,0.0018374654734000001,1.4,True,1.9998271860507157,CaSrO3,4.5161412942323675,4.5161412942323675,0.0
7350,perov_7350.cif,0.21253134464600001,0.0018374654734000001,2.06,True,1.6688379135150235,RbCoON2,5.254236562109782,5.254236562109782,0.0
7351,perov_7351.cif,0.184367152221,0.0036749309468000002,0.82,True,1.0486776549142078,PdSnO2F,6.4650789045252,6.4650789045252,0.0
7352,perov_7352.cif,0.219456354516,0.0018374654734000001,0.54,True,-0.001218218642847546,RbCrO2N,5.140159934090172,5.140159934090172,0.0
7353,perov_7353.cif,0.262130209514,0.0018374654734000001,1.6,True,-0.5301461503703011,TiPtO2N,6.0222631790185766,6.0222631790185766,0.0
7354,perov_7354.cif,0.180828171811,0.0036749309468000002,0.98,True,0.4650056691792734,ZnNiO2F,6.4948731574478895,6.4948731574478895,0.0
7355,perov_7355.cif,0.188061057104,0.0018374654734000001,1.1,True,-1.2312594606726612,RuSbO2S,5.987794925665513,5.987794925665513,0.0
7356,perov_7356.cif,0.20968216860199998,0.0018374654734000001,0.84,True,-6.970460627603061e-05,GeYO2S,5.530772189000585,5.530772189000585,0.0
7357,perov_7357.cif,0.35530498229999996,0.0018374654734000001,1.4,True,0.00035841162311811564,ScBON2,5.639148240776668,5.639148240776668,0.0
7358,perov_7358.cif,0.060100861279100005,0.0018374654734000001,2.22,True,1.3325488246766142,AgSrO2N,5.160686361460747,5.160686361460747,0.0
7359,perov_7359.cif,0.242924569415,0.0018374654734000001,1.84,True,0.6016209529042092,CoBeON2,6.09123937302065,6.09123937302065,0.0
7360,perov_7360.cif,0.172500695627,0.0036749309468000002,0.94,True,0.9582144816020204,CuZrOFN,6.217730624511535,6.217730624511535,0.0
7361,perov_7361.cif,0.232936810062,0.0036749309468000002,2.36,True,1.8886265454144355,HfPbO2F,6.008262967343912,6.008262967343912,0.0
7362,perov_7362.cif,0.193435246182,0.0018374654734000001,1.08,True,-0.8799330465892263,CdZrON2,5.773960141528048,5.773960141528048,0.0
7363,perov_7363.cif,0.10766632585000001,0.0018374654734000001,2.28,True,-3.957458464477716,MnSrO2N,4.981262857850316,4.981262857850316,0.0
7364,perov_7364.cif,0.281544691733,0.0018374654734000001,0.18,True,0.31356883242985845,InWO3,5.662912611741363,5.662912611741363,0.0
7365,perov_7365.cif,0.278551974187,0.0018374654734000001,1.26,True,2.9604878388699087,AsFeO2N,6.160064411284718,6.160064411284718,0.0
7366,perov_7366.cif,0.266476567655,0.0036749309468000002,2.34,True,8.769075069636758e-06,HfAgOFN,6.126091696701274,6.126091696701274,0.0
7367,perov_7367.cif,0.21768516229,0.0018374654734000001,0.82,True,3.040494516604685,GaFeO3,5.608054016732933,5.608054016732933,0.0
7368,perov_7368.cif,0.162170061747,0.0018374654734000001,2.0,True,2.7128866776160723,MnNaON2,5.309459587594825,5.309459587594825,0.0
7369,perov_7369.cif,0.208989501148,0.0018374654734000001,1.1,True,1.9999201150319552,CdGaO2N,5.666770358652086,5.666770358652086,0.0
7370,perov_7370.cif,0.36823186176,0.0018374654734000001,1.28,True,-1.0129672944836785,TaNiO3,5.9885860230761585,5.9885860230761585,0.0
7371,perov_7371.cif,0.131007719299,0.0018374654734000001,1.58,True,0.0,SrLiO2N,4.774678906205535,4.774678906205535,0.0
7372,perov_7372.cif,0.0866697694524,0.0018374654734000001,2.58,True,1.4804387741896081,MgNaN3,5.280753214365078,5.280753214365078,0.0
7373,perov_7373.cif,0.132276726191,0.0018374654734000001,3.24,True,3.686423573127703,BeCdN3,6.084720134908423,6.084720134908423,0.0
7374,perov_7374.cif,0.306034486028,0.0018374654734000001,2.48,True,-0.5668933243799221,HfAuO3,6.093446805005459,6.093446805005459,0.0
7375,perov_7375.cif,0.228674885031,0.0018374654734000001,1.96,True,-0.0016453479286700574,RhAuN3,6.2495608393225135,6.2495608393225135,0.0
7376,perov_7376.cif,0.11066274850999999,0.0018374654734000001,2.4,True,-0.0004998472863366745,AgNaON2,5.500704633011955,5.500704633011955,0.0
7377,perov_7377.cif,0.237320920603,0.0036749309468000002,1.82,True,0.0,FeAsOFN,6.5722852431885705,6.5722852431885705,0.0
7378,perov_7378.cif,0.195440642599,0.0018374654734000001,0.98,True,-0.21673099686556066,KMoON2,5.187388252517256,5.187388252517256,0.0
7379,perov_7379.cif,0.121867287256,0.0018374654734000001,0.18,True,0.999189121495208,NaNbO2N,5.4250762038142035,5.4250762038142035,0.0
7380,perov_7380.cif,0.220765403673,0.0018374654734000001,1.52,True,1.486305487598233,CrCuON2,5.8121518242958965,5.8121518242958965,0.0
7381,perov_7381.cif,0.210885579724,0.0036749309468000002,1.34,True,0.8786785069391565,PtSbO2F,6.926718256844193,6.926718256844193,0.0
7382,perov_7382.cif,0.233257666003,0.0018374654734000001,1.6,True,4.895917552913822,ReSnO2S,5.712137237253858,5.712137237253858,0.0
7383,perov_7383.cif,0.18360955156599998,0.0018374654734000001,1.64,True,1.996395009892412,TiMgON2,5.5251342137247645,5.5251342137247645,0.0
7384,perov_7384.cif,0.0676561149331,0.0018374654734000001,1.66,True,0.0,NiSrO2S,4.993126878002552,4.993126878002552,0.0
7385,perov_7385.cif,0.35757790270400003,0.0018374654734000001,0.92,True,-8.031524155249771e-05,YAsON2,5.828892825424439,5.828892825424439,0.0
7386,perov_7386.cif,0.270966314754,0.0018374654734000001,0.3,False,-0.0002186882633497928,PbGeO3,6.183861213555491,5.773861213555491,0.4
7387,perov_7387.cif,0.21959110065200002,0.0036749309468000002,1.46,True,3.0013655310499208,MoScOFN,5.944539786108111,5.944539786108111,0.0