,id,fermi level,fermi width,e_form,gap is direct,mu_b,formula,vbm,cbm,gap gllbsc
6947,perov_6947.cif,0.151161557656,0.0018374654734000001,2.38,True,-1.4402508900847288,MgCdON2,5.808443354721322,5.808443354721322,0.0
6948,perov_6948.cif,0.101594800644,0.0018374654734000001,1.52,True,1.002845447271195,PdNaO2S,5.371765450201114,5.371765450201114,0.0
6949,perov_6949.cif,0.08694277701130002,0.0036749309468000002,1.6,True,2.670715837296612,RbAgOFN,5.6816671634592,5.6816671634592,0.0
6950,perov_6950.cif,0.21510992803100001,0.0018374654734000001,1.28,True,1.0982054612364556,CsAlO2N,4.925096021709865,4.925096021709865,0.0
6951,perov_6951.cif,0.282031471203,0.0018374654734000001,0.66,True,0.39732836963681706,TeNbO2N,6.185165713941425,6.185165713941425,0.0
6952,perov_6952.cif,0.240387186782,0.0018374654734000001,1.92,True,1.7505787160964074e-14,HfCsO3,5.020149891446966,5.020149891446966,0.0
6953,perov_6953.cif,0.24034175017499998,0.0018374654734000001,2.72,True,0.3086115421373421,RhCsN3,5.148766071666398,5.148766071666398,0.0
6954,perov_6954.cif,0.294424673833,0.0018374654734000001,1.04,True,-0.7317061576154027,NbNiO2S,5.735596631053013,5.735596631053013,0.0
6955,perov_6955.cif,0.404106714697,0.0018374654734000001,0.92,True,-0.000340950939772374,LaTeO2N,5.8471028100024105,5.8471028100024105,0.0
6956,perov_6956.cif,0.18004263853500002,0.0018374654734000001,3.1,True,0.7573321026496097,ScSrON2,4.840921632264059,4.840921632264059,0.0
6957,perov_6957.cif,-0.011933440109600001,0.0018374654734000001,1.88,True,0.0,LiSrO3,4.808352341795283,4.808352341795283,0.0
6958,perov_6958.cif,0.112702728867,0.0036749309468000002,1.74,True,0.0,SrSrOFN,4.6942695277920965,4.6942695277920965,0.0
6959,perov_6959.cif,0.17816973218600002,0.0036749309468000002,1.04,True,0.4060128653495436,MgTeO2F,6.560377928516233,6.560377928516233,0.0
6960,perov_6960.cif,0.224144676894,0.0018374654734000001,1.0,True,9.175606864531004e-05,PtScO2S,5.799578081054043,5.799578081054043,0.0
6961,perov_6961.cif,0.369734591135,0.0018374654734000001,-0.14,True,0.09043030692525633,BaWO2N,5.461882672429725,5.461882672429725,0.0
6962,perov_6962.cif,0.21895327112500002,0.0018374654734000001,0.52,False,-0.00017952821136575647,CaHfO2S,7.086280475117438,2.5862804751174373,4.5
6963,perov_6963.cif,0.238914362051,0.0018374654734000001,0.96,True,0.014929891427209794,GeGeON2,6.096434221316855,6.096434221316855,0.0
6964,perov_6964.cif,0.21099899511599998,0.0018374654734000001,0.48,True,-1.5229464233843368,CrCrO2S,5.4662972375904415,5.4662972375904415,0.0
6965,perov_6965.cif,0.22265469460499998,0.0018374654734000001,1.44,True,2.3253078621067966,TaCaO2S,5.017846536579795,5.017846536579795,0.0
6966,perov_6966.cif,0.143395425191,0.0036749309468000002,1.66,True,-0.4406872728122496,BAlO2F,6.053417128762495,6.053417128762495,0.0
6967,perov_6967.cif,0.0354589713551,0.0036749309468000002,2.98,True,0.0,BMgOFN,6.200885830803318,6.200885830803318,0.0
6968,perov_6968.cif,0.285335594548,0.0018374654734000001,0.54,False,1.4374623660273755e-06,HfHfON2,6.308471072231022,4.508471072231021,1.8
6969,perov_6969.cif,0.183718654777,0.0018374654734000001,0.52,False,-8.935127259548968e-05,GeTiO2S,6.718125711462964,4.5181257114629645,2.2
6970,perov_6970.cif,0.25692756083,0.0018374654734000001,1.76,True,1.489587091231904,RhRuON2,5.988374515113428,5.988374515113428,0.0
6971,perov_6971.cif,0.21671635476599999,0.0018374654734000001,1.58,True,0.0,RhRhO2N,5.976022925671762,5.976022925671762,0.0
6972,perov_6972.cif,0.27580620651500004,0.0018374654734000001,1.44,True,0.7036899702167466,NiOsO3,6.203392959955874,6.203392959955874,0.0
6973,perov_6973.cif,0.24715777764600003,0.0018374654734000001,1.02,True,0.9977555226293884,BaBO3,5.472621382297668,5.472621382297668,0.0
6974,perov_6974.cif,0.246770778293,0.0036749309468000002,0.84,True,3.0492878610458636,RuTaOFN,6.3731669809181675,6.3731669809181675,0.0
6975,perov_6975.cif,0.20136612581799998,0.0036749309468000002,1.38,True,1.3366829063139587,MgNiOFN,6.2323640267973826,6.2323640267973826,0.0
6976,perov_6976.cif,0.151839909207,0.0018374654734000001,1.7,True,4.67708183782327,FeAgO3,5.9876828153059725,5.9876828153059725,0.0
6977,perov_6977.cif,0.284552322982,0.0018374654734000001,1.2,True,0.002248375623295829,HgOsO2N,6.3741274820073714,6.3741274820073714,0.0
6978,perov_6978.cif,0.41471589929799996,0.0018374654734000001,0.74,True,0.4862159494250377,YReO2N,5.551519680905519,5.551519680905519,0.0
6979,perov_6979.cif,0.25399770783799996,0.0018374654734000001,0.22,True,3.0064632405527894,SnMnO3,5.846275333177606,5.846275333177606,0.0
6980,perov_6980.cif,0.188894699749,0.0018374654734000001,1.2,True,3.000003563245376,MoInO2S,5.320608789911116,5.320608789911116,0.0
6981,perov_6981.cif,0.409546272157,0.0018374654734000001,1.14,True,1.025185612952784,ReSiON2,5.972044355498366,5.972044355498366,0.0
6982,perov_6982.cif,0.19316205945700002,0.0018374654734000001,2.46,True,0.0,SrTlN3,5.309347052932523,5.309347052932523,0.0
6983,perov_6983.cif,0.22213178102400002,0.0036749309468000002,0.94,True,6.843848948889784e-05,SnRhO2F,6.420894269589533,6.420894269589533,0.0
6984,perov_6984.cif,0.148862645967,0.0018374654734000001,2.26,True,-0.000903763308978075,AlCdO3,5.710297531064099,5.710297531064099,0.0
6985,perov_6985.cif,0.253852870549,0.0018374654734000001,0.98,True,0.2952084604469753,CaBO3,5.260814400450959,5.260814400450959,0.0
6986,perov_6986.cif,0.296351618186,0.0018374654734000001,1.72,True,3.866982155826172,FeIrON2,6.126130129182447,6.126130129182447,0.0
6987,perov_6987.cif,0.178733916765,0.0036749309468000002,1.22,True,-5.129106881564862e-15,GePdO2F,6.552872303767901,6.552872303767901,0.0
6988,perov_6988.cif,0.162370400857,0.0018374654734000001,1.48,True,2.280159586186695,CuNbN3,5.855827132129207,5.855827132129207,0.0
6989,perov_6989.cif,0.25728225077100003,0.0018374654734000001,1.0,True,2.1234194193069094,GeFeON2,5.946063359881135,5.946063359881135,0.0
6990,perov_6990.cif,0.20309535893,0.0036749309468000002,0.42,False,-3.766409057496271e-15,ZnAlO2F,6.497911892756915,5.697911892756914,0.8
6991,perov_6991.cif,0.135924087821,0.0018374654734000001,3.12,True,1.6666574092772652,TaBaO2S,5.219871327682827,5.219871327682827,0.0
6992,perov_6992.cif,0.187383922333,0.0018374654734000001,1.18,True,0.6564838402484091,BeCrN3,5.875819558425598,5.875819558425598,0.0
6993,perov_6993.cif,0.10000507159600001,0.0036749309468000002,1.58,True,-1.0689466480688488,ZnMgOFN,6.246464542088053,6.246464542088053,0.0
6994,perov_6994.cif,0.167546063279,0.0018374654734000001,0.84,True,0.8355540650655673,MgNiO3,5.882660357070918,5.882660357070918,0.0
6995,perov_6995.cif,0.201570352969,0.0018374654734000001,2.06,True,0.00011519781212676604,TaNaN3,5.375840686238002,5.375840686238002,0.0
6996,perov_6996.cif,0.31386563126999995,0.0036749309468000002,1.38,True,-0.42403866691636816,YIrOFN,6.272236296421894,6.272236296421894,0.0
6997,perov_6997.cif,0.23215368298,0.0018374654734000001,1.74,True,1.0418520461045269,NiRuON2,6.015971880518233,6.015971880518233,0.0
6998,perov_6998.cif,0.19189251448199998,0.0018374654734000001,1.4,True,0.4082639791515028,NiRhO2N,6.003563368897388,6.003563368897388,0.0
6999,perov_6999.cif,0.176758131494,0.0018374654734000001,0.92,False,-0.00014822519325612373,SiHfO2S,6.593497457994045,4.693497457994043,1.9
7000,perov_7000.cif,0.199363016303,0.0018374654734000001,0.78,True,-0.2558041969714825,KWON2,5.314058953106871,5.314058953106871,0.0
7001,perov_7001.cif,0.177193827075,0.0018374654734000001,1.62,True,1.0005549698907783,ZrKO3,5.188721197668132,5.188721197668132,0.0
7002,perov_7002.cif,0.152455638408,0.0018374654734000001,2.6,True,3.9568088393353857,BeGaN3,5.701509577367407,5.701509577367407,0.0
7003,perov_7003.cif,0.24248337221400001,0.0018374654734000001,0.94,True,0.8457435303205754,AsWO2S,6.067667536622957,6.067667536622957,0.0
7004,perov_7004.cif,0.276117229087,0.0036749309468000002,0.98,True,2.6801557187504623,TeCrOFN,6.503978248791193,6.503978248791193,0.0
7005,perov_7005.cif,0.168491736245,0.0036749309468000002,0.56,True,-2.066551433453044e-10,RbGeO2F,5.762393000013673,5.762393000013673,0.0
7006,perov_7006.cif,0.173258860488,0.0018374654734000001,1.28,True,0.0262123780979202,VYON2,5.394999345706292,5.394999345706292,0.0
7007,perov_7007.cif,0.20822617120900003,0.0018374654734000001,1.24,True,4.724469674517613,FeRhO3,5.949437185133654,5.949437185133654,0.0
7008,perov_7008.cif,0.207527431705,0.0036749309468000002,1.12,True,1.4209064326137373,PdMnOFN,6.2364380625442095,6.2364380625442095,0.0
7009,perov_7009.cif,0.13435102508,0.0018374654734000001,2.76,True,4.000002399162135,SbCaN3,5.279022711090838,5.279022711090838,0.0
7010,perov_7010.cif,0.129260909038,0.0018374654734000001,1.48,True,2.8521127993600257,GaScO2N,5.355551028358167,5.355551028358167,0.0
7011,perov_7011.cif,0.062058468235200004,0.0018374654734000001,1.78,True,2.530907498299742,NaAgO2N,5.539498366956497,5.539498366956497,0.0
7012,perov_7012.cif,0.121801741008,0.0018374654734000001,1.72,True,0.5973304548279152,GeHgO2S,6.103258074415197,6.103258074415197,0.0
7013,perov_7013.cif,0.32244446276,0.0018374654734000001,1.2,True,3.305371206741732,RuReON2,5.905329525614839,5.905329525614839,0.0
7014,perov_7014.cif,0.124711877261,0.0018374654734000001,1.46,True,0.7886505003747467,KAuO3,5.689514669881902,5.689514669881902,0.0
7015,perov_7015.cif,0.268728595019,0.0018374654734000001,0.2,True,0.001166108408179627,SnZrO3,8.060910925801808,3.5809109258018066,4.5
7016,perov_7016.cif,0.321185937914,0.0036749309468000002,1.58,True,1.7167804673556297,HfNbOFN,5.9995530433593265,5.9995530433593265,0.0
7017,perov_7017.cif,0.241974019198,0.0036749309468000002,0.92,True,3.0439474309914997e-15,PbTeOFN,6.562365456409906,6.562365456409906,0.0
7018,perov_7018.cif,0.161869198498,0.0018374654734000001,1.28,True,1.4860936252775296,AgRhO2S,5.8297019636838305,5.8297019636838305,0.0
7019,perov_7019.cif,0.210831607832,0.0018374654734000001,0.3,True,-3.173825760048698,FeTaO2N,5.851764645138692,5.851764645138692,0.0
7020,perov_7020.cif,0.221511331036,0.0018374654734000001,0.34,True,0.0014592856758604,InHfO3,5.3814610376622065,5.3814610376622065,0.0
7021,perov_7021.cif,0.22389050926600002,0.0036749309468000002,2.2,True,1.788265064750142,HfBiO2F,6.074735548760092,6.074735548760092,0.0
7022,perov_7022.cif,0.171848317567,0.0018374654734000001,1.14,True,-3.615190056989187,MnRhO2S,5.627018545613702,5.627018545613702,0.0
7023,perov_7023.cif,0.278394204255,0.0036749309468000002,1.36,True,8.455625228023769e-15,SbIrO2F,6.868544803723795,6.868544803723795,0.0
7024,perov_7024.cif,0.19683510417199998,0.0018374654734000001,2.28,True,0.17755923233452364,RbPdON2,5.290392978118997,5.290392978118997,0.0
7025,perov_7025.cif,0.237439391164,0.0018374654734000001,1.94,False,-3.1927823691546564e-06,ScCaN3,5.099530618561094,4.699530618561092,0.4
7026,perov_7026.cif,0.256609231585,0.0018374654734000001,0.7,False,0.00018899544827508683,BiInO3,6.711215543118597,4.4612155431185965,2.3
7027,perov_7027.cif,0.157118316744,0.0036749309468000002,0.66,True,4.254909073755215,RbFeO2F,5.620261391947862,5.620261391947862,0.0
7028,perov_7028.cif,0.212539414559,0.0018374654734000001,1.22,True,0.003097161376288681,WYON2,5.615926710561848,5.615926710561848,0.0
7029,perov_7029.cif,0.183902632969,0.0018374654734000001,1.1,True,0.9959576846145524,HgAlO2S,5.679514001080299,5.679514001080299,0.0
7030,perov_7030.cif,0.23044526896099998,0.0018374654734000001,0.7,True,1.9974426188090144,BaInO2N,5.092419473533852,5.092419473533852,0.0
7031,perov_7031.cif,0.163732298438,0.0036749309468000002,1.38,True,3.5970591024528744,MnZnOFN,6.2364380625442095,6.2364380625442095,0.0
7032,perov_7032.cif,0.222031567082,0.0036749309468000002,0.76,True,3.1804623169266795,AsCrO2F,6.503870693786367,6.503870693786367,0.0
7033,perov_7033.cif,0.153194581828,0.0018374654734000001,1.4,True,1.999849985370592,CuSnO2N,6.025237446810078,6.025237446810078,0.0
7034,perov_7034.cif,0.103316746371,0.0036749309468000002,1.44,True,2.7313164544554027,AgZnOFN,6.4610725777590945,6.4610725777590945,0.0
7035,perov_7035.cif,0.269774953734,0.0018374654734000001,2.26,True,0.014960878282797909,SrBN3,5.053800616866841,5.053800616866841,0.0
7036,perov_7036.cif,0.232102117995,0.0036749309468000002,0.6,True,0.9786346961985544,BaYOFN,5.464382838693672,5.464382838693672,0.0
7037,perov_7037.cif,0.35128826805,0.0036749309468000002,0.18,True,1.0831937890096055,BaNbO2F,5.757674291754597,5.757674291754597,0.0
7038,perov_7038.cif,0.33144128074,0.0036749309468000002,1.3,True,0.20546270095469232,AlSiOFN,6.137315086988592,6.137315086988592,0.0
7039,perov_7039.cif,0.19313627502300001,0.0018374654734000001,0.5,True,0.0002803492828284959,TlVO2S,5.8701748372173945,5.8701748372173945,0.0
7040,perov_7040.cif,0.24858129622900002,0.0036749309468000002,0.8,True,-0.0014985060283078662,BaBiOFN,5.748457786570345,5.748457786570345,0.0
7041,perov_7041.cif,0.0258879384462,0.0036749309468000002,2.76,True,0.0,AsRbO2F,5.927976615519798,5.927976615519798,0.0
7042,perov_7042.cif,0.197233859819,0.0018374654734000001,0.96,True,0.020148724286684683,CaCuO3,5.306609432968381,5.306609432968381,0.0
7043,perov_7043.cif,0.186630093722,0.0018374654734000001,0.94,True,-0.00027118115098697016,RhMgO2S,5.636065245953642,5.636065245953642,0.0
7044,perov_7044.cif,0.0770572760885,0.0018374654734000001,1.66,True,-4.479009410857347e-08,CoSrO2S,4.970221660075749,4.970221660075749,0.0
7045,perov_7045.cif,0.17611138411200003,0.0018374654734000001,1.72,True,2.004531053866601,ZnZnO2N,6.0585525202471135,6.0585525202471135,0.0
7046,perov_7046.cif,0.18049238506700002,0.0036749309468000002,1.32,True,6.026904455772749e-15,CaAuO2F,5.9556317316862675,5.9556317316862675,0.0
7047,perov_7047.cif,0.211849276472,0.0018374654734000001,1.12,True,2.9951972965165266,PdAlO3,5.715444269959531,5.715444269959531,0.0
7048,perov_7048.cif,0.275067546549,0.0018374654734000001,2.8,True,-0.9094548582918442,NbTlN3,6.098838225811945,6.098838225811945,0.0
7049,perov_7049.cif,0.38506689151699997,0.0018374654734000001,0.54,True,0.3298845687949381,YZrO3,5.483469081690654,5.483469081690654,0.0
7050,perov_7050.cif,0.163529589506,0.0018374654734000001,1.48,True,-0.04211735597888945,TlTlO3,6.635993065167682,6.635993065167682,0.0
7051,perov_7051.cif,0.276233000142,0.0018374654734000001,2.38,True,0.8693013999179584,IrAuN3,6.526255324658954,6.526255324658954,0.0
7052,perov_7052.cif,0.255775235097,0.0036749309468000002,0.8,True,0.003906242228516987,TlGeOFN,6.786128179508582,6.786128179508582,0.0
7053,perov_7053.cif,0.236942931834,0.0018374654734000001,2.12,True,-0.010660847171045006,LaNaON2,5.092641680388766,5.092641680388766,0.0
7054,perov_7054.cif,0.145411454301,0.0018374654734000001,1.06,True,-0.0018551975805946282,GaPbO2S,5.351752040820417,5.351752040820417,0.0
7055,perov_7055.cif,0.278695605799,0.0018374654734000001,0.74,True,0.0217140902502262,NbGaO2N,5.552222562012829,5.552222562012829,0.0
7056,perov_7056.cif,0.289018061577,0.0018374654734000001,0.6,True,0.00024342831946455587,SbSnO3,6.164800466842487,6.164800466842487,0.0
7057,perov_7057.cif,0.200301074445,0.0036749309468000002,1.16,True,-3.228227662303893e-15,YHgO2F,6.287823950169351,6.287823950169351,0.0
7058,perov_7058.cif,0.14713990519099998,0.0018374654734000001,2.1,True,-0.17045609681626356,GaCsO2N,4.922023595099599,4.922023595099599,0.0
7059,perov_7059.cif,0.26349510943599996,0.0018374654734000001,1.84,True,1.0035959270680872,WHfN3,5.651478211941414,5.651478211941414,0.0
7060,perov_7060.cif,0.23491402695,0.0018374654734000001,0.72,True,-1.308851594368208,CoWO2S,5.819159938141211,5.819159938141211,0.0
7061,perov_7061.cif,0.297950494608,0.0036749309468000002,0.7,True,0.011342573566853531,SbTiOFN,6.249829793861674,6.249829793861674,0.0
7062,perov_7062.cif,0.24823962776,0.0018374654734000001,1.5,True,2.7138987795889715,MnPtON2,6.070890317915981,6.070890317915981,0.0
7063,perov_7063.cif,0.216896280279,0.0018374654734000001,2.22,True,-0.0018971746400052879,BZnO2N,6.01434495062703,6.01434495062703,0.0
7064,perov_7064.cif,0.215305850977,0.0018374654734000001,1.92,True,1.157858539907764,AgPtON2,6.289561856029747,6.289561856029747,0.0
7065,perov_7065.cif,0.24609146110599997,0.0018374654734000001,1.78,True,0.013443263526809798,RuCuON2,6.037690755667351,6.037690755667351,0.0
7066,perov_7066.cif,0.328530275669,0.0018374654734000001,1.5,True,-0.397432941449164,TaIrO3,6.2250380228691995,6.2250380228691995,0.0
7067,perov_7067.cif,0.19076369403299998,0.0036749309468000002,1.16,True,1.8884206809349,AsSbO2F,6.858223878338045,6.858223878338045,0.0
7068,perov_7068.cif,0.22038066829599998,0.0036749309468000002,0.88,True,3.5462055183478864,TlFeOFN,6.6187457551074695,6.6187457551074695,0.0
7069,perov_7069.cif,0.208380420992,0.0018374654734000001,2.08,True,0.24443055406585404,TiSrON2,4.872395997118004,4.872395997118004,0.0
7070,perov_7070.cif,0.0295306256286,0.0036749309468000002,1.64,True,0.0,CsLiO2F,5.224085286643024,5.224085286643024,0.0
7071,perov_7071.cif,0.20698612880800002,0.0018374654734000001,1.5,True,0.2734013664313953,VHfN3,5.429152271228081,5.429152271228081,0.0
7072,perov_7072.cif,0.182972022942,0.0018374654734000001,0.9,False,-1.5906213348133252e-06,NiMgO2S,5.762038997536036,5.562038997536035,0.2
7073,perov_7073.cif,0.143180787625,0.0036749309468000002,2.4,True,2.6141409498639958e-15,SiAuO2F,6.9496781072656795,6.9496781072656795,0.0
7074,perov_7074.cif,0.291846298731,0.0018374654734000001,0.76,True,-0.3239040726480931,ScSnO3,5.721632638775503,5.721632638775503,0.0
7075,perov_7075.cif,0.36514506274999997,0.0018374654734000001,1.12,True,0.5919813807663414,ZrSiO2S,5.717652208385545,5.717652208385545,0.0
7076,perov_7076.cif,0.049812417937199996,0.0018374654734000001,4.24,True,4.999887641623668,LiRbN3,4.858219324089322,4.858219324089322,0.0
7077,perov_7077.cif,0.20717232254999998,0.0036749309468000002,1.86,True,3.4329765621092276,OsTeOFN,6.869612877917612,6.869612877917612,0.0
7078,perov_7078.cif,0.07018738986810001,0.0036749309468000002,2.92,True,0.0,TeRbOFN,5.928074646920408,5.928074646920408,0.0
7079,perov_7079.cif,0.26204707942899996,0.0018374654734000001,-0.12,False,-0.000159358274340822,CaTiO3,7.191459441067594,2.881459441067596,4.3
7080,perov_7080.cif,0.248529606302,0.0018374654734000001,1.94,True,2.9759483565402403,CaPdN3,5.188922507275011,5.188922507275011,0.0
7081,perov_7081.cif,0.237637684249,0.0018374654734000001,1.62,True,-0.9855508603468448,ReCdO2N,5.928358963806361,5.928358963806361,0.0
7082,perov_7082.cif,0.40196889559,0.0018374654734000001,0.66,True,0.014456426538281162,LaRuN3,5.5406987477577765,5.5406987477577765,0.0
7083,perov_7083.cif,0.354358877987,0.0036749309468000002,0.58,True,1.6456161095669153,YTiO2F,5.788020918152621,5.788020918152621,0.0
7084,perov_7084.cif,0.192387669492,0.0036749309468000002,1.72,True,-1.2869933795225533e-11,SbHgOFN,6.789510614773005,6.789510614773005,0.0
7085,perov_7085.cif,0.36023123275200003,0.0036749309468000002,1.14,True,0.7588551213779269,ZrGaOFN,5.813079945392874,5.813079945392874,0.0
7086,perov_7086.cif,0.0921984260657,0.0018374654734000001,1.34,True,0.0,CsYO2S,4.7678548663721605,4.7678548663721605,0.0
7087,perov_7087.cif,0.15956629275800002,0.0018374654734000001,1.54,True,-0.2326878968181013,TiNaO2N,5.266931421985541,5.266931421985541,0.0
7088,perov_7088.cif,0.215275307652,0.0018374654734000001,0.94,True,4.5561880813755,CrSbO2S,5.764119861231588,5.764119861231588,0.0
7089,perov_7089.cif,0.35478634423199995,0.0018374654734000001,1.9,True,0.049292718265380835,TeTeN3,6.497549313628237,6.497549313628237,0.0
7090,perov_7090.cif,0.165824279229,0.0018374654734000001,1.24,True,3.499595640739176,KNiO2N,5.351536367901193,5.351536367901193,0.0
7091,perov_7091.cif,0.255018569011,0.0018374654734000001,1.78,True,0.011149173165875936,RhBeON2,6.09123937302065,6.09123937302065,0.0
7092,perov_7092.cif,0.0995718020093,0.0018374654734000001,1.82,True,1.910856659023164,AgMgO2N,5.852045851543082,5.852045851543082,0.0
7093,perov_7093.cif,0.361914379418,0.0018374654734000001,0.2,True,3.638459438364961,YMnO3,5.507363098519546,5.507363098519546,0.0