,id,fermi level,fermi width,e_form,gap is direct,mu_b,formula,vbm,cbm,gap gllbsc
3554,perov_3554.cif,0.0903811667119,0.0018374654734000001,1.02,True,1.667655480378157,NaAlO2N,5.191523821547964,5.191523821547964,0.0
3555,perov_3555.cif,0.0995166623655,0.0018374654734000001,2.76,True,0.0,KBaON2,4.812411895023839,4.812411895023839,0.0
3556,perov_3556.cif,0.151382804673,0.0018374654734000001,1.28,True,-0.0003412552076173372,HgAgO2S,6.060197278399447,6.060197278399447,0.0
3557,perov_3557.cif,0.191834899375,0.0036749309468000002,0.6,True,2.234499966433185e-15,AuZrO2F,6.586634668929918,6.586634668929918,0.0
3558,perov_3558.cif,0.34625479724200003,0.0018374654734000001,0.78,True,2.147446096522912,ZrCrO2S,5.442581387400388,5.442581387400388,0.0
3559,perov_3559.cif,0.175200024918,0.0018374654734000001,1.9,True,3.4385381632195746,TlLiO2N,5.843225417459875,5.843225417459875,0.0
3560,perov_3560.cif,0.37619766792900006,0.0018374654734000001,0.56,True,-2.7856560556547487,VSiO3,5.927326853560205,5.927326853560205,0.0
3561,perov_3561.cif,0.202270465487,0.0018374654734000001,1.46,True,0.4642502254483532,GaRhO2N,5.633114247536801,5.633114247536801,0.0
3562,perov_3562.cif,0.227921422658,0.0018374654734000001,1.38,True,0.003643543531458349,GaRuON2,5.6447570935112825,5.6447570935112825,0.0
3563,perov_3563.cif,0.06339377356,0.0018374654734000001,1.96,True,-3.6539669577398177,CrSrO3,5.01639322730436,5.01639322730436,0.0
3564,perov_3564.cif,0.2895775363,0.0018374654734000001,1.68,True,3.4496744954644285,MnAsN3,5.968764011352544,5.968764011352544,0.0
3565,perov_3565.cif,0.21957827003199998,0.0018374654734000001,1.02,True,1.806478343021657,MgRuO3,5.909159900148173,5.909159900148173,0.0
3566,perov_3566.cif,0.145303552093,0.0036749309468000002,1.44,True,0.0,BaSrOFN,4.977244567511755,4.977244567511755,0.0
3567,perov_3567.cif,0.15970076642699998,0.0018374654734000001,2.34,True,2.9997518127422094,AsInN3,5.755037517906776,5.755037517906776,0.0
3568,perov_3568.cif,0.0524655583915,0.0018374654734000001,2.84,True,0.0,KCaON2,4.626157015015997,4.626157015015997,0.0
3569,perov_3569.cif,0.220691927405,0.0018374654734000001,1.42,True,2.4752510436456734,RuSnON2,5.988374515113428,5.988374515113428,0.0
3570,perov_3570.cif,0.07801198289530001,0.0036749309468000002,2.66,True,1.1896666379198817,BPbOFN,6.246509459838758,6.246509459838758,0.0
3571,perov_3571.cif,0.20178664673500002,0.0036749309468000002,1.24,True,0.06631378757736073,CuIrOFN,6.7130499322853066,6.7130499322853066,0.0
3572,perov_3572.cif,0.355012167055,0.0018374654734000001,1.74,True,-0.00759980682024392,IrBO2N,6.237701419228874,6.237701419228874,0.0
3573,perov_3573.cif,0.24328395761100002,0.0018374654734000001,0.84,True,4.732266028365079,MnScO2S,5.349755682965147,5.349755682965147,0.0
3574,perov_3574.cif,0.178065411167,0.0018374654734000001,1.12,True,2.432608324053582,CoBiO2S,5.740346694903606,5.740346694903606,0.0
3575,perov_3575.cif,0.151851013053,0.0036749309468000002,1.0,True,-1.5422937282447522e-08,GeLaO2F,6.314026511177031,5.814026511177031,0.5
3576,perov_3576.cif,0.256846537859,0.0018374654734000001,0.4,True,0.009645697285574071,ZnWO3,6.08750769520659,6.08750769520659,0.0
3577,perov_3577.cif,0.318734686065,0.0018374654734000001,1.46,True,-0.3546514453804535,CdIrON2,6.233927630171009,6.233927630171009,0.0
3578,perov_3578.cif,0.09871238782649999,0.0018374654734000001,1.26,True,1.9998588082549096,AgScO2S,5.542452180919413,5.542452180919413,0.0
3579,perov_3579.cif,0.24723111018599997,0.0018374654734000001,0.24,False,-0.00010411511238481882,CdTaO2N,6.67473431633687,5.234734316336872,1.4
3580,perov_3580.cif,0.332180813383,0.0018374654734000001,1.74,True,0.003507805235859252,PtMnN3,6.02837518600357,6.02837518600357,0.0
3581,perov_3581.cif,0.229186377676,0.0036749309468000002,0.94,True,-1.276383573322265e-14,MgNbOFN,6.1146876187899295,6.1146876187899295,0.0
3582,perov_3582.cif,0.184857772416,0.0018374654734000001,1.68,True,-3.1684326167064056,MoRbO3,5.225562886844719,5.225562886844719,0.0
3583,perov_3583.cif,0.0347499552907,0.0018374654734000001,1.98,True,0.0,RbRbO3,4.718058578341316,4.718058578341316,0.0
3584,perov_3584.cif,0.151196728779,0.0036749309468000002,1.16,True,-2.599068702898579e-15,MgBiO2F,6.19131291597478,6.19131291597478,0.0
3585,perov_3585.cif,0.175579635085,0.0036749309468000002,2.34,True,2.3243400503902585,PtLiOFN,6.252307963458916,6.252307963458916,0.0
3586,perov_3586.cif,0.315992597371,0.0018374654734000001,1.72,True,0.00010154917305271738,ZrAgN3,5.736110609779817,5.736110609779817,0.0
3587,perov_3587.cif,0.166816073526,0.0036749309468000002,2.6,True,0.0,IrHgOFN,6.921470549249728,6.921470549249728,0.0
3588,perov_3588.cif,0.0398360717369,0.0036749309468000002,2.94,True,-0.8656099782458044,BAgO2F,6.459162175102526,6.459162175102526,0.0
3589,perov_3589.cif,0.28047185263700003,0.0018374654734000001,2.44,True,2.000144289960648,ReSnN3,5.810897463705411,5.810897463705411,0.0
3590,perov_3590.cif,0.136958192419,0.0018374654734000001,1.82,True,-2.9251395488911958,NiScO2N,5.707746827284947,5.707746827284947,0.0
3591,perov_3591.cif,0.12550186425899998,0.0036749309468000002,1.58,True,4.9485401331461,FeYOFN,5.937715249665545,5.937715249665545,0.0
3592,perov_3592.cif,0.234965939483,0.0018374654734000001,1.46,True,1.5986260796114604,SiCoO3,6.1417490507273875,6.1417490507273875,0.0
3593,perov_3593.cif,0.27199039716,0.0018374654734000001,1.64,True,-0.8008289551707246,PdIrO3,6.32786549632034,6.32786549632034,0.0
3594,perov_3594.cif,0.32325763008,0.0018374654734000001,0.82,True,-0.0012168392596127765,LaBiO2N,5.518164280024647,5.518164280024647,0.0
3595,perov_3595.cif,0.329427511276,0.0018374654734000001,1.36,True,2.6986734692180865,ReSbON2,5.994458830326206,5.994458830326206,0.0
3596,perov_3596.cif,0.17859711319600002,0.0018374654734000001,1.22,True,0.01169868576533517,GeCuO3,6.150128002838291,6.150128002838291,0.0
3597,perov_3597.cif,0.293406256579,0.0036749309468000002,0.76,True,2.9260734464138136,TiHfO2F,5.865740301284513,5.865740301284513,0.0
3598,perov_3598.cif,0.11886962405,0.0018374654734000001,1.52,True,1.348539606019381,MgYO2N,5.477586730885595,5.477586730885595,0.0
3599,perov_3599.cif,0.180881449536,0.0018374654734000001,1.94,True,0.0007254372469880366,AlLiN3,5.175293114899977,5.175293114899977,0.0
3600,perov_3600.cif,0.182419162326,0.0018374654734000001,1.08,True,0.7742501438219467,NaOsO2S,5.474025437791402,5.474025437791402,0.0
3601,perov_3601.cif,0.09918712504310001,0.0036749309468000002,1.6,True,-5.233515330889975e-15,ZnAgO2F,6.506639309169053,6.506639309169053,0.0
3602,perov_3602.cif,0.17077427900699998,0.0018374654734000001,1.9,True,-1.5601882842110768,RhScO2N,5.6815633979140765,5.6815633979140765,0.0
3603,perov_3603.cif,0.0809462052129,0.0036749309468000002,0.56,True,0.0,KInO2F,5.360972116099616,5.360972116099616,0.0
3604,perov_3604.cif,0.112250340553,0.0018374654734000001,2.46,True,5.330406667509512,MnRbO3,5.176410925593838,5.176410925593838,0.0
3605,perov_3605.cif,0.320165939143,0.0018374654734000001,0.82,False,-0.0005107947167900923,YSnO2N,6.9895891419918605,4.269589141991859,2.7
3606,perov_3606.cif,0.170900471868,0.0018374654734000001,3.06,True,2.116023775965621,BeLaN3,5.635873688462706,5.635873688462706,0.0
3607,perov_3607.cif,0.22445160498000002,0.0018374654734000001,0.6,True,-0.0011628687739251699,InHfO2N,5.343774057019106,5.343774057019106,0.0
3608,perov_3608.cif,0.388345118191,0.0018374654734000001,0.76,True,-1.6091265211020969,TaAlO3,5.622568608447369,5.622568608447369,0.0
3609,perov_3609.cif,0.22935920735999998,0.0036749309468000002,0.32,False,2.060083578927955e-15,SnScO2F,7.554514376486488,4.654514376486488,2.9
3610,perov_3610.cif,0.16986822453699998,0.0018374654734000001,2.08,True,-0.3468103852722757,RbLaON2,4.895728435820698,4.895728435820698,0.0
3611,perov_3611.cif,0.169369630557,0.0018374654734000001,4.54,True,2.3436187552816428,ReRbON2,5.181372378511666,5.181372378511666,0.0
3612,perov_3612.cif,0.0256170351672,0.0018374654734000001,2.02,True,0.0,HgBaO2S,5.478190454293642,5.478190454293642,0.0
3613,perov_3613.cif,0.248545185044,0.0018374654734000001,1.26,True,0.38088395752968296,IrSnO3,6.28461862632758,6.28461862632758,0.0
3614,perov_3614.cif,0.24188875493200002,0.0018374654734000001,1.0,True,3.5163619597173503,PdFeO2S,5.765716393678273,5.765716393678273,0.0
3615,perov_3615.cif,0.30476654698000005,0.0018374654734000001,1.06,True,1.9989899657662809,PdSiO3,6.184012780401014,6.184012780401014,0.0
3616,perov_3616.cif,0.185321565593,0.0036749309468000002,2.02,True,6.550993539774897e-11,SiRhO2F,6.5527442504525055,6.5527442504525055,0.0
3617,perov_3617.cif,0.271663664392,0.0018374654734000001,2.34,True,2.4639373218030087,SbAuN3,6.4018302882606255,6.4018302882606255,0.0
3618,perov_3618.cif,0.2519496449,0.0018374654734000001,1.8,True,0.6684531225791657,CoCdN3,5.927821026213971,5.927821026213971,0.0
3619,perov_3619.cif,0.187862357947,0.0018374654734000001,0.88,True,0.8218692617357704,TiScO2S,5.269739895703808,5.269739895703808,0.0
3620,perov_3620.cif,0.100709503237,0.0018374654734000001,1.78,True,2.5709969247529134,InNaO3,5.191804093127447,5.191804093127447,0.0
3621,perov_3621.cif,0.318158230825,0.0036749309468000002,1.46,True,-0.7311374984396013,ZrIrOFN,6.439980486859895,6.439980486859895,0.0
3622,perov_3622.cif,0.24594273703000002,0.0018374654734000001,2.82,True,-2.116021473260429,MoHgN3,6.0071388237661365,6.0071388237661365,0.0
3623,perov_3623.cif,0.25162873661400004,0.0018374654734000001,1.98,True,-0.0002804579908046051,RbSiON2,5.362129787115028,5.362129787115028,0.0
3624,perov_3624.cif,0.103447724788,0.0018374654734000001,3.04,True,0.0,RbHgN3,5.423728213109379,5.423728213109379,0.0
3625,perov_3625.cif,0.286928648504,0.0036749309468000002,1.2,True,0.024807838266397656,BaPtOFN,6.1087734777244895,6.1087734777244895,0.0
3626,perov_3626.cif,0.0198948849421,0.0018374654734000001,1.28,True,0.0,KCaO3,4.6916390789783895,4.6916390789783895,0.0
3627,perov_3627.cif,0.188110161639,0.0018374654734000001,1.34,True,1.3819316341932724,RuCdO2S,5.880297725643881,5.880297725643881,0.0
3628,perov_3628.cif,0.196125738834,0.0018374654734000001,0.74,True,1.000674914421115,CuCrO2S,5.673358900495733,5.673358900495733,0.0
3629,perov_3629.cif,0.254928218996,0.0018374654734000001,1.96,True,3.1813470889726116,FePbN3,5.709732649830513,5.709732649830513,0.0
3630,perov_3630.cif,0.0993309335476,0.0018374654734000001,3.22,True,0.00011018960474730026,BInON2,5.555671477736123,5.555671477736123,0.0
3631,perov_3631.cif,0.288574190691,0.0018374654734000001,0.44,True,0.005433999833858396,NbTaON2,5.793506908704102,5.793506908704102,0.0
3632,perov_3632.cif,0.258771057887,0.0018374654734000001,1.84,True,0.6625630528117803,ScAuN3,5.941623142909982,5.941623142909982,0.0
3633,perov_3633.cif,0.22263021227200003,0.0018374654734000001,2.76,True,2.2334553605285805,MnHgN3,5.950635311878885,5.950635311878885,0.0
3634,perov_3634.cif,0.184115614826,0.0018374654734000001,1.6,True,0.5579584724445201,NaMnN3,5.272276841254632,5.272276841254632,0.0
3635,perov_3635.cif,0.34105092182400004,0.0018374654734000001,0.64,True,0.0015705302807909052,PbReN3,5.695599474821968,5.695599474821968,0.0
3636,perov_3636.cif,0.18225402298300003,0.0018374654734000001,0.94,True,0.0029858278203072075,PdTiON2,5.717531695106367,5.717531695106367,0.0
3637,perov_3637.cif,0.44316485691299995,0.0018374654734000001,1.24,True,0.8395077045131601,ZrReO2N,5.699989083294801,5.699989083294801,0.0
3638,perov_3638.cif,0.0391198639864,0.0018374654734000001,1.7,True,2.5455015110837707,HgCaO2S,5.266167932534934,5.266167932534934,0.0
3639,perov_3639.cif,0.174283977849,0.0018374654734000001,0.84,False,-1.1557642924808166e-05,PdGeO2S,6.11152643444595,5.7115264344459495,0.4
3640,perov_3640.cif,0.22585448405900002,0.0018374654734000001,0.6,False,-0.00013375305919158159,SnHfO2S,6.8799427390249095,4.179942739024908,2.7
3641,perov_3641.cif,0.17399116269200002,0.0018374654734000001,1.92,True,-1.152781834954951,AgBiON2,5.918582667576313,5.918582667576313,0.0
3642,perov_3642.cif,0.22763383229200002,0.0036749309468000002,0.96,True,-0.939782995520274,CaRhO2F,5.615473261534149,5.615473261534149,0.0
3643,perov_3643.cif,0.157408071044,0.0018374654734000001,2.16,True,2.970349077383209,CoScON2,5.641774766480862,5.641774766480862,0.0
3644,perov_3644.cif,0.220626198348,0.0018374654734000001,1.54,True,0.007322506375588845,AlIrO2S,5.705389851850718,5.705389851850718,0.0
3645,perov_3645.cif,0.206148820086,0.0018374654734000001,1.4,True,3.9032382942261457,MnBiON2,5.712809100991282,5.712809100991282,0.0
3646,perov_3646.cif,0.32618323019400003,0.0036749309468000002,1.32,True,-1.4383336412225427e-15,HfMoOFN,5.96925072055475,5.96925072055475,0.0
3647,perov_3647.cif,0.147157052011,0.0018374654734000001,2.0,True,-1.5250899602631869,ZnInON2,5.5965076345669225,5.5965076345669225,0.0
3648,perov_3648.cif,0.171753500767,0.0018374654734000001,0.86,True,1.9953838900200795,SrYO2N,4.830465764096131,4.830465764096131,0.0
3649,perov_3649.cif,0.319417532637,0.0018374654734000001,1.44,True,0.5101597194423829,TaOsO2N,6.073561253469694,6.073561253469694,0.0
3650,perov_3650.cif,0.142153054595,0.0018374654734000001,2.56,True,-9.895344709676425e-05,KAgON2,5.323685934632409,5.323685934632409,0.0
3651,perov_3651.cif,0.202959580059,0.0018374654734000001,2.9,True,1.3136475887990289,CaBaN3,4.688480796070487,4.688480796070487,0.0
3652,perov_3652.cif,-0.0237465916872,0.0036749309468000002,2.78,True,0.0,BCaO2F,5.61285898048375,5.61285898048375,0.0
3653,perov_3653.cif,0.32503255489300004,0.0018374654734000001,0.66,False,-0.00035905319541596126,ScGeO2N,6.478716944078323,5.038716944078325,1.4
3654,perov_3654.cif,0.302532912878,0.0018374654734000001,1.14,True,1.84080047877672,TaAlO2S,5.411701644322407,5.411701644322407,0.0
3655,perov_3655.cif,0.0315809900175,0.0036749309468000002,1.64,True,1.5790204513818702e-13,ZnBaO2F,5.881757262271131,5.881757262271131,0.0
3656,perov_3656.cif,0.306175639524,0.0036749309468000002,0.98,True,4.844566093789235e-15,GeSiO2F,6.6417281129251835,6.6417281129251835,0.0
3657,perov_3657.cif,0.268325058954,0.0018374654734000001,1.34,True,0.00016252080182788117,PtTeON2,6.5623330452653965,6.5623330452653965,0.0
3658,perov_3658.cif,0.108560080658,0.0018374654734000001,1.6,True,3.999998479191828,NiMgO3,5.882660357070918,5.882660357070918,0.0
3659,perov_3659.cif,0.275250561737,0.0036749309468000002,1.58,True,5.224995293361272,ReGeO2F,6.4178354415420165,6.4178354415420165,0.0
3660,perov_3660.cif,0.31235505604,0.0036749309468000002,1.36,True,2.0008913499238994,MoBeOFN,6.418124845174518,6.418124845174518,0.0
3661,perov_3661.cif,0.321003993337,0.0018374654734000001,1.62,True,0.0001939154717476299,RhBON2,5.931409509663384,5.931409509663384,0.0
3662,perov_3662.cif,0.143997850683,0.0018374654734000001,3.2,True,0.0,FeCsO3,5.198415816898357,5.198415816898357,0.0
3663,perov_3663.cif,0.31030742835700004,0.0018374654734000001,1.74,True,2.9900185893415774,WIrO3,6.313581229822549,6.313581229822549,0.0
3664,perov_3664.cif,0.272448023834,0.0018374654734000001,0.5,True,1.6963268347416507,SrRuO3,5.2110529681417885,5.2110529681417885,0.0
3665,perov_3665.cif,0.241271744258,0.0036749309468000002,0.7,True,0.24384142296975495,AuWO2F,6.841224373156158,6.841224373156158,0.0
3666,perov_3666.cif,0.334612911639,0.0018374654734000001,1.4,True,-1.100104826342559,NbIrO2N,6.15099143551333,6.15099143551333,0.0
3667,perov_3667.cif,0.160080389069,0.0018374654734000001,2.1,True,-0.05926805789868336,BGeO3,6.097053565114175,6.097053565114175,0.0
3668,perov_3668.cif,0.227433571447,0.0036749309468000002,0.54,True,3.4484808364620926e-11,GaWOFN,6.0377698482536175,6.0377698482536175,0.0
3669,perov_3669.cif,0.29068374711399997,0.0018374654734000001,1.7,True,0.0,TaHfN3,5.572220499607152,5.572220499607152,0.0
3670,perov_3670.cif,0.206298621383,0.0018374654734000001,1.94,True,0.001973179006249381,ScYN3,5.277497988977292,5.277497988977292,0.0
3671,perov_3671.cif,0.284064790979,0.0018374654734000001,1.22,False,-2.462922111046533e-05,AlBO3,7.1587402656400885,4.188740265640089,3.0
3672,perov_3672.cif,0.19714670121,0.0018374654734000001,0.7,True,-2.9524589986199747,CrSnO2N,5.805333205422013,5.805333205422013,0.0
3673,perov_3673.cif,0.220695194986,0.0018374654734000001,1.32,True,3.546117361707957e-05,LiOsON2,5.669540089177864,5.669540089177864,0.0
3674,perov_3674.cif,0.191840320201,0.0036749309468000002,0.32,False,-4.4378291236222047e-16,AgHfO2F,7.119295974563322,5.219295974563321,1.9
3675,perov_3675.cif,0.118280938386,0.0018374654734000001,1.72,True,3.874708493334605,NaZrN3,5.249402759898822,5.249402759898822,0.0
3676,perov_3676.cif,0.327999982987,0.0018374654734000001,0.92,True,3.146849521359376,ScFeO2N,5.616676007325874,5.616676007325874,0.0
3677,perov_3677.cif,-0.00395540425001,0.0036749309468000002,2.84,True,0.0,BBaO2F,5.838839718387287,5.838839718387287,0.0
3678,perov_3678.cif,0.04009076136069999,0.0036749309468000002,1.38,True,-0.9376780759357484,ZnCaO2F,5.654115485753137,5.654115485753137,0.0
3679,perov_3679.cif,0.10402573259299999,0.0036749309468000002,1.9,True,2.6523312771472223,PtCdO2F,6.802364830049651,6.802364830049651,0.0
3680,perov_3680.cif,0.307525577535,0.0018374654734000001,0.26,True,0.025733718146703662,SnWO2N,6.003563368897388,6.003563368897388,0.0
3681,perov_3681.cif,0.242171230636,0.0036749309468000002,1.34,True,0.0,MnHfO2F,5.954805765115182,5.954805765115182,0.0
3682,perov_3682.cif,0.257269836025,0.0018374654734000001,1.58,True,0.10466005099996424,RePdON2,5.892147854992976,5.892147854992976,0.0
3683,perov_3683.cif,0.218170712326,0.0036749309468000002,1.56,True,9.253078818344397,ReFeO2F,6.259537097155236,6.259537097155236,0.0
3684,perov_3684.cif,0.253499032306,0.0036749309468000002,0.36,True,1.0013392259009386,PbVOFN,6.031237682451898,6.031237682451898,0.0
3685,perov_3685.cif,0.12349844573100001,0.0018374654734000001,1.54,True,0.8970807791205022,BeLiO2S,5.5364143105605885,5.5364143105605885,0.0
3686,perov_3686.cif,0.272638194691,0.0018374654734000001,1.16,True,-2.111984720889607,VIrO3,6.065208532706878,6.065208532706878,0.0
3687,perov_3687.cif,0.20267402702,0.0018374654734000001,2.08,True,0.1953454112420836,PdHgON2,6.211247892278992,6.211247892278992,0.0
3688,perov_3688.cif,0.336888778055,0.0036749309468000002,1.38,True,2.6951520990790527,NbReOFN,6.197219747685011,6.197219747685011,0.0
3689,perov_3689.cif,0.263220213925,0.0018374654734000001,1.7,True,0.3863607863715969,GeZnN3,6.013734008439901,6.013734008439901,0.0
3690,perov_3690.cif,0.250670466109,0.0036749309468000002,1.58,True,3.4874135585236514,MoRuOFN,6.3097397596771625,6.3097397596771625,0.0
3691,perov_3691.cif,0.288920195983,0.0018374654734000001,0.7,False,-5.1130342330623186e-05,LaTlO3,6.4733395180045665,5.303339518004567,1.2
3692,perov_3692.cif,0.171609798138,0.0018374654734000001,4.1,True,2.697825814310583,TeRbN3,5.478709671916606,5.478709671916606,0.0
3693,perov_3693.cif,0.324705095031,0.0018374654734000001,0.84,True,-0.0006145156658839094,YSiO2S,5.568722729040284,5.568722729040284,0.0
3694,perov_3694.cif,0.26578506547499997,0.0018374654734000001,1.6,True,0.5560440404423729,AuFeN3,6.178186524405122,6.178186524405122,0.0
3695,perov_3695.cif,0.275850299127,0.0036749309468000002,1.48,True,1.4625342019080172,NbCuOFN,6.3361233643504855,6.3361233643504855,0.0
3696,perov_3696.cif,0.305895473395,0.0018374654734000001,1.58,True,-0.00021303391054822583,RuNiN3,5.973841348637799,5.973841348637799,0.0
3697,perov_3697.cif,0.285347351563,0.0018374654734000001,1.22,True,-0.3658885500667646,LaPbON2,5.419560495562163,5.419560495562163,0.0
3698,perov_3698.cif,0.101807313893,0.0018374654734000001,1.52,True,0.1650449947908328,GaNaO2S,5.02892356834198,5.02892356834198,0.0
3699,perov_3699.cif,0.155848827645,0.0018374654734000001,1.96,True,-1.490746979981057,NiAuO2N,6.3672304786696285,6.3672304786696285,0.0
3700,perov_3700.cif,0.151547378146,0.0036749309468000002,1.6,True,1.0655284194745709,InAgOFN,6.010421870148712,6.010421870148712,0.0
3701,perov_3701.cif,0.215530362709,0.0018374654734000001,1.18,True,0.0056531790511833435,TaYON2,5.537167581175925,5.537167581175925,0.0