,id,fermi level,fermi width,e_form,gap is direct,mu_b,formula,vbm,cbm,gap gllbsc
6653,perov_6653.cif,0.164376028714,0.0018374654734000001,1.66,True,-3.3060018036603567,FeScO2N,5.616676007325874,5.616676007325874,0.0
6654,perov_6654.cif,0.12471600948799999,0.0018374654734000001,3.32,True,-0.4664297465986389,BLaON2,5.526696382565653,5.526696382565653,0.0
6655,perov_6655.cif,0.24930655535799998,0.0036749309468000002,0.66,False,9.178995244212842e-15,KSiO2F,7.291072544936338,4.391072544936336,2.9
6656,perov_6656.cif,0.251631319566,0.0018374654734000001,1.4,True,0.0015774039259000006,TePdO3,6.363022468914747,6.363022468914747,0.0
6657,perov_6657.cif,0.105361807958,0.0036749309468000002,0.76,True,-2.3127233790477254e-15,LiAsO2F,6.234140838677112,6.234140838677112,0.0
6658,perov_6658.cif,0.156789066866,0.0018374654734000001,1.98,True,0.0,BaRbO2N,4.813877150460586,4.813877150460586,0.0
6659,perov_6659.cif,0.18043183377900002,0.0036749309468000002,1.18,True,-3.579533995288891e-15,CuRuOFN,6.487152819993634,6.487152819993634,0.0
6660,perov_6660.cif,0.244664920164,0.0018374654734000001,0.54,True,6.054403754163218e-05,AsNbO2N,6.14174873193223,6.14174873193223,0.0
6661,perov_6661.cif,0.207703743439,0.0018374654734000001,0.52,True,-0.0009565292204230401,BaAsO2S,5.4948798434429165,5.4948798434429165,0.0
6662,perov_6662.cif,0.237138140985,0.0036749309468000002,1.0,True,1.924919467379432,PbNiOFN,6.278219259764246,6.278219259764246,0.0
6663,perov_6663.cif,0.24723011307300002,0.0018374654734000001,1.32,True,1.0158834650289317,CdRhO2N,6.011727809822098,6.011727809822098,0.0
6664,perov_6664.cif,0.274933973368,0.0018374654734000001,1.36,True,0.5993464002439879,CdRuON2,6.024153196181139,6.024153196181139,0.0
6665,perov_6665.cif,0.218617685881,0.0018374654734000001,2.22,True,1.5014617780461237,MnZnN3,5.763698260668777,5.763698260668777,0.0
6666,perov_6666.cif,0.178520284634,0.0018374654734000001,1.9,True,0.0017818210943616466,GeAgON2,6.053421570167784,6.053421570167784,0.0
6667,perov_6667.cif,0.28852687221900003,0.0036749309468000002,1.74,True,1.6616127360250756,IrBeO2F,6.882648710636133,6.882648710636133,0.0
6668,perov_6668.cif,0.204719690843,0.0018374654734000001,0.86,True,2.0083976053438377,CuMnO3,5.894421340069426,5.894421340069426,0.0
6669,perov_6669.cif,0.31762352049000003,0.0018374654734000001,1.28,True,-0.6521857330345096,ScSbO3,5.861039210106219,5.861039210106219,0.0
6670,perov_6670.cif,0.276099011788,0.0018374654734000001,1.46,True,0.6139572807680606,GaIrON2,5.8413201100448395,5.8413201100448395,0.0
6671,perov_6671.cif,0.219366365781,0.0018374654734000001,1.78,True,2.030163705263272,GaAlN3,5.239039208250069,5.239039208250069,0.0
6672,perov_6672.cif,0.106337855428,0.0018374654734000001,2.0,True,0.5716351889954686,AgYON2,5.626100557553091,5.626100557553091,0.0
6673,perov_6673.cif,0.118570304201,0.0036749309468000002,1.64,True,0.7488411195750224,AuAuO2F,7.222348849822775,7.222348849822775,0.0
6674,perov_6674.cif,0.10853577766400001,0.0036749309468000002,1.24,True,3.0006124210584284,MnLiO2F,5.808045680894001,5.808045680894001,0.0
6675,perov_6675.cif,0.145650355532,0.0018374654734000001,2.6,True,5.719353804587435,RbZnN3,5.253343757402648,5.253343757402648,0.0
6676,perov_6676.cif,0.281800894547,0.0018374654734000001,1.76,True,-1.2688433953917848,MoZnN3,5.818426735212682,5.818426735212682,0.0
6677,perov_6677.cif,0.0580031019332,0.0036749309468000002,1.72,True,2.9998332874578484,AgLiO2F,6.017249638792569,6.017249638792569,0.0
6678,perov_6678.cif,0.318023152758,0.0018374654734000001,0.36,True,0.002874083764151437,BaSbO2N,5.569294442599583,5.569294442599583,0.0
6679,perov_6679.cif,0.191603672227,0.0018374654734000001,2.22,True,1.0693394957657958,IrAgO3,6.325018951984805,6.325018951984805,0.0
6680,perov_6680.cif,0.18090219825599999,0.0036749309468000002,1.66,True,4.795018960516419,RuScOFN,6.117131539482165,6.117131539482165,0.0
6681,perov_6681.cif,0.115884831283,0.0036749309468000002,2.78,True,2.0002735435662298,ReNaOFN,5.791004065706033,5.791004065706033,0.0
6682,perov_6682.cif,0.226872689851,0.0018374654734000001,0.86,True,0.00024553380288239125,SnNbN3,5.807996365172618,5.807996365172618,0.0
6683,perov_6683.cif,0.171735102566,0.0036749309468000002,2.0,True,0.719674747467181,TiCdOFN,6.137628355470357,6.137628355470357,0.0
6684,perov_6684.cif,0.103681714971,0.0036749309468000002,1.38,True,1.5302292141183216,RbPbOFN,5.53336240500313,5.53336240500313,0.0
6685,perov_6685.cif,0.158860190154,0.0018374654734000001,0.96,False,-0.00028173250371901407,BeHfO2S,7.076310701729497,4.276310701729498,2.8
6686,perov_6686.cif,0.270268452837,0.0018374654734000001,2.26,True,-0.0004368954880885536,CsPtON2,5.460502642218676,5.460502642218676,0.0
6687,perov_6687.cif,0.312320326559,0.0018374654734000001,1.52,True,0.6320009035171665,CdIrN3,6.1902707295106625,6.1902707295106625,0.0
6688,perov_6688.cif,0.012554568259,0.0018374654734000001,2.86,True,0.0,CdKO2S,5.194214566907188,5.194214566907188,0.0
6689,perov_6689.cif,0.302445621555,0.0018374654734000001,0.94,True,5.471320379513145e-05,SbSbO3,6.315004744236366,6.315004744236366,0.0
6690,perov_6690.cif,0.134959907082,0.0018374654734000001,1.24,True,2.8645998252487885,NiLaO3,5.633378210269858,5.633378210269858,0.0
6691,perov_6691.cif,0.315587112452,0.0018374654734000001,2.14,True,0.9120372055216954,TeCuN3,6.238651388072568,6.238651388072568,0.0
6692,perov_6692.cif,0.173084973502,0.0018374654734000001,0.94,True,-0.00020058176441261518,HgMgO2S,5.858904533573575,5.858904533573575,0.0
6693,perov_6693.cif,0.304657649469,0.0018374654734000001,1.62,True,0.4567691443095576,VNiN3,5.713098107118844,5.713098107118844,0.0
6694,perov_6694.cif,0.187545329555,0.0018374654734000001,0.9,True,0.7571229520013922,PdZrO2N,5.8199218312658205,5.8199218312658205,0.0
6695,perov_6695.cif,0.156562106189,0.0036749309468000002,1.18,True,2.6607865997632385,RbFeOFN,5.580902065399708,5.580902065399708,0.0
6696,perov_6696.cif,0.28348491505600004,0.0036749309468000002,1.34,True,-1.3049114986297342e-16,SbIrOFN,6.820443607180213,6.820443607180213,0.0
6697,perov_6697.cif,0.15730874605200001,0.0036749309468000002,0.7,True,4.3219352734217535,MnZnO2F,6.280420558442647,6.280420558442647,0.0
6698,perov_6698.cif,0.19537856101300002,0.0018374654734000001,1.92,True,-0.3421781774263048,PbCdON2,5.85117954953606,5.85117954953606,0.0
6699,perov_6699.cif,0.12099544942399999,0.0036749309468000002,1.16,True,1.6791938102909538,AgZnO2F,6.506639309169053,6.506639309169053,0.0
6700,perov_6700.cif,0.253454944974,0.0018374654734000001,1.78,True,-0.5932553229032173,TaAuO2N,6.277934881532223,6.277934881532223,0.0
6701,perov_6701.cif,0.257232705154,0.0036749309468000002,1.16,True,0.0,AsCrOFN,6.458323351303246,6.458323351303246,0.0
6702,perov_6702.cif,0.216352193273,0.0018374654734000001,0.62,True,-0.0032957446900024547,PtTaO2S,6.042322171898121,6.042322171898121,0.0
6703,perov_6703.cif,0.29251891635899996,0.0018374654734000001,1.16,True,-2.749476801186089,VSbO2N,5.907907956717665,5.907907956717665,0.0
6704,perov_6704.cif,0.24892963404500001,0.0018374654734000001,1.04,True,0.5798386270611964,CoNiO2S,5.819159938141211,5.819159938141211,0.0
6705,perov_6705.cif,0.262670249065,0.0018374654734000001,1.88,True,-0.00022173427893618726,AlTeO2N,5.918891078723054,5.918891078723054,0.0
6706,perov_6706.cif,0.268778959577,0.0018374654734000001,1.86,True,2.2145394718235423,AuAsON2,6.5624060078126565,6.5624060078126565,0.0
6707,perov_6707.cif,0.180846728605,0.0036749309468000002,0.8,True,2.026642390616502,PdMnO2F,6.280420558442647,6.280420558442647,0.0
6708,perov_6708.cif,0.28910222301,0.0018374654734000001,1.2,True,0.00078612283595092,TiNiON2,5.704625171336235,5.704625171336235,0.0
6709,perov_6709.cif,0.20873577932999998,0.0018374654734000001,2.08,True,2.3961143481248044,SnTlON2,6.231332414413885,6.231332414413885,0.0
6710,perov_6710.cif,0.359289412782,0.0018374654734000001,1.34,True,0.3858737204763526,WNiN3,5.9470517425296725,5.9470517425296725,0.0
6711,perov_6711.cif,0.372605564163,0.0018374654734000001,0.84,True,0.008417493270979294,SbReO2N,6.03673476705067,6.03673476705067,0.0
6712,perov_6712.cif,0.17405859839499999,0.0036749309468000002,1.08,True,1.195984504088365,RbGeOFN,5.722038309729824,5.722038309729824,0.0
6713,perov_6713.cif,0.14272338273399998,0.0018374654734000001,3.08,True,-1.8887186545494337,VRbO2N,5.106561237331982,5.106561237331982,0.0
6714,perov_6714.cif,0.23673489249000002,0.0036749309468000002,0.8,True,0.00346207496077966,PbTeO2F,6.608646556113932,6.608646556113932,0.0
6715,perov_6715.cif,0.217559199549,0.0018374654734000001,0.86,True,-0.0012237504503541529,AgMoON2,5.8568253690546275,5.8568253690546275,0.0
6716,perov_6716.cif,0.311763433977,0.0036749309468000002,1.56,True,2.137943719320536,HfNbO2F,6.041864907034653,6.041864907034653,0.0
6717,perov_6717.cif,0.264047626564,0.0018374654734000001,0.88,True,4.83661044230796,MnMoON2,5.653198941454253,5.653198941454253,0.0
6718,perov_6718.cif,0.176313439064,0.0018374654734000001,0.92,True,2.6684556572306977,VAsO2S,5.828968944427192,5.828968944427192,0.0
6719,perov_6719.cif,0.264740793396,0.0036749309468000002,2.28,True,1.587703244917794,HfBiOFN,6.032193488260933,6.032193488260933,0.0
6720,perov_6720.cif,0.0829432287444,0.0018374654734000001,2.48,True,0.0,PtCaO3,5.542842788947978,5.542842788947978,0.0
6721,perov_6721.cif,0.142270850123,0.0018374654734000001,1.36,True,3.999962529019924,CoScO3,5.721632638775503,5.721632638775503,0.0
6722,perov_6722.cif,0.11567036804099999,0.0018374654734000001,3.04,True,-3.7820978719161637e-06,KNaON2,4.871972236805704,4.871972236805704,0.0
6723,perov_6723.cif,0.023479221787,0.0018374654734000001,1.74,True,0.0,KSrO2N,4.570818168459175,4.570818168459175,0.0
6724,perov_6724.cif,0.0730912378565,0.0018374654734000001,1.32,True,2.0737078311144472,NaPbO2N,5.3949045455227385,5.3949045455227385,0.0
6725,perov_6725.cif,0.10741132922800001,0.0018374654734000001,2.56,True,-0.0020000641828968315,LiAuON2,5.8603185186881115,5.8603185186881115,0.0
6726,perov_6726.cif,0.196398163398,0.0036749309468000002,1.04,True,0.8313044016406651,ZnAlOFN,6.055207525697981,6.055207525697981,0.0
6727,perov_6727.cif,0.220007451185,0.0018374654734000001,1.68,True,0.28455147035952066,RhSnN3,5.892614481656334,5.892614481656334,0.0
6728,perov_6728.cif,0.025845649860700003,0.0018374654734000001,2.76,True,0.0,NaCsO2S,4.661587734647318,4.661587734647318,0.0
6729,perov_6729.cif,0.310969003195,0.0018374654734000001,1.16,True,-0.00021581843676377207,HfSnO3,5.745416967613701,5.745416967613701,0.0
6730,perov_6730.cif,0.200989899045,0.0018374654734000001,1.02,False,-7.54970210792294e-07,AsGaO3,6.580100873670023,5.250100873670024,1.3
6731,perov_6731.cif,0.09602550440789999,0.0036749309468000002,0.96,True,0.994904077720598,ZnMgO2F,6.29051774975994,6.29051774975994,0.0
6732,perov_6732.cif,0.244861378694,0.0018374654734000001,1.14,True,0.15727822940570135,IrLaO2S,5.636191068769028,5.636191068769028,0.0
6733,perov_6733.cif,0.188179333003,0.0036749309468000002,1.46,True,-0.5259602627614075,GePdOFN,6.506981797464782,6.506981797464782,0.0
6734,perov_6734.cif,0.242526271419,0.0018374654734000001,2.22,True,0.011518850835809521,HgBeON2,6.332075378881463,6.332075378881463,0.0
6735,perov_6735.cif,0.272981287123,0.0018374654734000001,1.5,True,1.9171139739096572,BiLaN3,5.441146252794331,5.441146252794331,0.0
6736,perov_6736.cif,0.16770932352600001,0.0018374654734000001,1.26,True,1.5254995269173617,SnZnO2S,5.832325592992857,5.832325592992857,0.0
6737,perov_6737.cif,0.262376559696,0.0036749309468000002,0.78,True,2.9889484667158683,TeCrO2F,6.549847572559362,6.549847572559362,0.0
6738,perov_6738.cif,0.253702006424,0.0018374654734000001,0.44,True,2.7144440111551247,AsCrO3,6.095940896343948,6.095940896343948,0.0
6739,perov_6739.cif,0.30522600311799997,0.0018374654734000001,1.14,True,3.4899290316236318,ReMnO2S,5.5489847327902915,5.5489847327902915,0.0
6740,perov_6740.cif,0.117201132197,0.0018374654734000001,0.96,True,2.372774458289836,LiCoO3,5.6038174073068845,5.6038174073068845,0.0
6741,perov_6741.cif,0.403871208903,0.0018374654734000001,1.78,True,-0.026767556740408285,OsSiO2N,6.257603406392543,6.257603406392543,0.0
6742,perov_6742.cif,0.266023168335,0.0036749309468000002,1.36,True,-0.8190280052457065,YIrO2F,6.316471259459249,6.316471259459249,0.0
6743,perov_6743.cif,0.304365245326,0.0018374654734000001,0.5,True,0.9646934458805864,SrSiO2N,5.233018406609547,5.233018406609547,0.0
6744,perov_6744.cif,0.136034858664,0.0018374654734000001,2.02,True,2.4103104691013897,PdTlO3,6.363022468914747,6.363022468914747,0.0
6745,perov_6745.cif,0.171431056069,0.0036749309468000002,0.86,True,0.0,MgNiO2F,6.276317790547958,6.276317790547958,0.0
6746,perov_6746.cif,0.258223105163,0.0036749309468000002,0.66,True,2.515177057941281,RuTaO2F,6.418113757874359,6.418113757874359,0.0
6747,perov_6747.cif,0.154407112466,0.0018374654734000001,2.18,True,0.5824833253890898,RuNaN3,5.4768660744023885,5.4768660744023885,0.0
6748,perov_6748.cif,0.125728826629,0.0036749309468000002,2.22,True,1.8381775579710204,BAlOFN,6.011024363571093,6.011024363571093,0.0
6749,perov_6749.cif,0.30192094966999994,0.0018374654734000001,0.88,True,0.7877976649115546,ScZrO2S,5.326545455124241,5.326545455124241,0.0
6750,perov_6750.cif,0.030762091323,0.0036749309468000002,2.52,True,0.0,BMgO2F,6.244617594493557,6.244617594493557,0.0
6751,perov_6751.cif,0.19401097339899998,0.0018374654734000001,0.8,True,0.002762474226287281,HgSnO3,6.256115779379952,6.256115779379952,0.0
6752,perov_6752.cif,0.375152495057,0.0018374654734000001,0.7,True,1.3271355518252648,LaNiO2N,5.593927025158623,5.593927025158623,0.0
6753,perov_6753.cif,0.246207961297,0.0018374654734000001,1.3,True,2.127645829311442,NbTeO2S,5.99518424670895,5.99518424670895,0.0
6754,perov_6754.cif,0.241772798933,0.0018374654734000001,1.44,True,-0.02578746580094597,CoBO2S,5.789768738226379,5.789768738226379,0.0
6755,perov_6755.cif,0.190473460724,0.0018374654734000001,0.72,True,-0.3711637751749325,PdVO2S,5.628706060850655,5.628706060850655,0.0
6756,perov_6756.cif,0.233951023471,0.0036749309468000002,1.1,True,5.523533766459003e-14,SnRhOFN,6.37592802039514,6.37592802039514,0.0
6757,perov_6757.cif,0.197292372315,0.0018374654734000001,1.3,True,1.9486499006089681,BeCoO2S,5.945781899144246,5.945781899144246,0.0
6758,perov_6758.cif,0.183200408947,0.0018374654734000001,1.48,True,1.3039158440819172,PdGaON2,5.632157063585037,5.632157063585037,0.0
6759,perov_6759.cif,0.257657397482,0.0018374654734000001,0.76,True,0.25504118950116345,TlAlO3,5.960634073679862,5.960634073679862,0.0
6760,perov_6760.cif,0.289655613311,0.0018374654734000001,1.08,True,0.012814567461207462,NbAlN3,5.478146613722738,5.478146613722738,0.0
6761,perov_6761.cif,0.247071345644,0.0018374654734000001,1.5,True,0.0001508151465010599,HgRuON2,6.225143440368028,6.225143440368028,0.0
6762,perov_6762.cif,0.218059912215,0.0018374654734000001,1.58,True,1.3659343751128117,HgRhO2N,6.212303492599758,6.212303492599758,0.0
6763,perov_6763.cif,0.196885730988,0.0018374654734000001,1.56,True,0.18873193115866727,BeAsON2,6.351366141223957,6.351366141223957,0.0
6764,perov_6764.cif,0.213250521844,0.0036749309468000002,1.1,True,1.804305817062307,TeSbO2F,6.906705735173492,6.906705735173492,0.0
6765,perov_6765.cif,0.187491639823,0.0018374654734000001,0.4,False,0.0003101912377285261,MgHfO3,7.815287133115845,3.3652871331158454,4.5
6766,perov_6766.cif,0.281408213969,0.0036749309468000002,1.1,True,1.237684165015022,SnOsO2F,6.588151829930428,6.588151829930428,0.0
6767,perov_6767.cif,0.15968252427500002,0.0018374654734000001,1.22,True,0.0037210551741324593,GaAgO2S,5.495189292104193,5.495189292104193,0.0
6768,perov_6768.cif,0.257222204835,0.0018374654734000001,1.74,True,0.001567706128621893,OsCdON2,6.125129520977774,6.125129520977774,0.0
6769,perov_6769.cif,0.0755858044416,0.0036749309468000002,2.16,True,0.0,InNaOFN,5.500438764120344,5.500438764120344,0.0
6770,perov_6770.cif,0.21412669144299998,0.0018374654734000001,1.04,True,0.5283699855581521,GeIrO2S,6.131064502063213,6.131064502063213,0.0
6771,perov_6771.cif,0.22544115668099998,0.0018374654734000001,0.4,True,0.04761864314139963,GeVO2N,5.845705591957611,5.845705591957611,0.0
6772,perov_6772.cif,0.10614887302100001,0.0018374654734000001,3.66,True,0.20187915181250735,GeKON2,5.36151344148606,5.36151344148606,0.0
6773,perov_6773.cif,0.246432445117,0.0036749309468000002,0.78,True,-5.0884270333255404e-15,SrTeO2F,5.785336232933747,5.785336232933747,0.0
6774,perov_6774.cif,0.056447328552400006,0.0018374654734000001,1.3,True,1.9999797584215033,NaScO2S,5.072176210396057,5.072176210396057,0.0
6775,perov_6775.cif,0.10947809131200001,0.0018374654734000001,1.22,False,-0.0001961751805286948,LiBiO2S,5.495123337574425,5.195123337574423,0.3
6776,perov_6776.cif,0.275597624213,0.0018374654734000001,2.92,True,0.014362989341037746,HfCaN3,4.91989754086137,4.91989754086137,0.0
6777,perov_6777.cif,0.092111151503,0.0018374654734000001,2.18,True,4.999999791599335,RhCaO3,5.263264710969106,5.263264710969106,0.0
6778,perov_6778.cif,0.0560845428329,0.0036749309468000002,2.3,True,0.0,MgSrOFN,5.32314475091741,5.32314475091741,0.0
6779,perov_6779.cif,0.18009529049800002,0.0018374654734000001,1.22,False,0.0005875901302871969,AsScO3,6.370975327681055,5.560975327681055,0.8
6780,perov_6780.cif,0.284837807198,0.0018374654734000001,1.56,True,-1.4906601990282626,RhOsO2N,6.131692054164207,6.131692054164207,0.0
6781,perov_6781.cif,0.247694581021,0.0018374654734000001,0.82,True,7.282143835019659,FeFeO2S,5.660913005057753,5.660913005057753,0.0
6782,perov_6782.cif,0.27117441854200003,0.0018374654734000001,1.44,True,-0.7612669447574236,NiOsO2N,6.159949897046517,6.159949897046517,0.0
6783,perov_6783.cif,0.37350976326700003,0.0036749309468000002,1.16,True,1.820755127938032,ZrGaO2F,5.8540767070525614,5.8540767070525614,0.0
6784,perov_6784.cif,0.17209036678300002,0.0036749309468000002,1.16,True,-3.795488811824717e-15,SbHgO2F,6.837393656305982,6.837393656305982,0.0
6785,perov_6785.cif,0.362513619797,0.0036749309468000002,0.78,True,0.13926538976427236,YTiOFN,5.747486752657845,5.747486752657845,0.0
6786,perov_6786.cif,0.21871620361400002,0.0018374654734000001,1.94,True,2.0119776565516823,CaBiN3,5.107090420420486,5.107090420420486,0.0
6787,perov_6787.cif,0.273641323557,0.0018374654734000001,2.2,True,2.000265215968391,ReZrN3,5.620433294059086,5.620433294059086,0.0
6788,perov_6788.cif,0.220909134028,0.0036749309468000002,2.28,True,0.0,OsTeO2F,6.9180608408728625,6.9180608408728625,0.0
6789,perov_6789.cif,0.043632578252999994,0.0036749309468000002,2.58,True,0.0,TeRbO2F,5.9698824090161695,5.9698824090161695,0.0
6790,perov_6790.cif,0.25326237834800003,0.0018374654734000001,0.78,True,0.7615079667554775,NiMoO3,5.928986239837512,5.928986239837512,0.0
6791,perov_6791.cif,0.190236560612,0.0018374654734000001,2.0,True,-0.2084530031283338,SrCdON2,5.122235054621728,5.122235054621728,0.0
6792,perov_6792.cif,0.19116369309,0.0018374654734000001,0.72,True,2.65172182393162,FeTiON2,5.613604159431984,5.613604159431984,0.0
6793,perov_6793.cif,0.30567131314199997,0.0018374654734000001,0.94,False,4.104286550798974e-05,TeBeO3,6.8718024283444334,6.101802428344435,0.8
6794,perov_6794.cif,0.22207858153700002,0.0018374654734000001,0.96,True,-3.463618876361326,MnAlO2N,5.475634701067788,5.475634701067788,0.0
6795,perov_6795.cif,0.178475703718,0.0018374654734000001,1.4,True,2.6801238567069086,AgAlO2N,5.6728653212122575,5.6728653212122575,0.0
6796,perov_6796.cif,0.19891131028,0.0018374654734000001,0.88,True,4.127307112212904,FeGeO2S,5.804072657682145,5.804072657682145,0.0
6797,perov_6797.cif,0.183749148315,0.0036749309468000002,1.44,True,0.06702617236244991,ScCdOFN,6.097980930607461,6.097980930607461,0.0
6798,perov_6798.cif,0.266336025154,0.0018374654734000001,0.74,True,-0.8766048653402674,BaHfON2,5.154073341498559,5.154073341498559,0.0
6799,perov_6799.cif,0.119937657667,0.0018374654734000001,2.9,True,5.324940939607067,HgCaN3,5.357217554759887,5.357217554759887,0.0