,id,fermi level,fermi width,e_form,gap is direct,mu_b,formula,vbm,cbm,gap gllbsc
5916,perov_5916.cif,0.338500543421,0.0018374654734000001,0.96,True,0.2720045545263936,PbOsON2,5.9679400475784465,5.9679400475784465,0.0
5917,perov_5917.cif,0.24529730179,0.0036749309468000002,1.62,True,0.0,AlBeOFN,6.172999557005559,6.172999557005559,0.0
5918,perov_5918.cif,0.278934480544,0.0018374654734000001,1.62,True,0.0013162026514876855,GeBON2,6.011955874347247,6.011955874347247,0.0
5919,perov_5919.cif,0.183466487431,0.0036749309468000002,0.76,True,0.988080586778132,AgZrOFN,6.2065876664479855,6.2065876664479855,0.0
5920,perov_5920.cif,0.34934615766099997,0.0018374654734000001,1.92,True,0.025422982762595584,SnBN3,5.889871177635599,5.889871177635599,0.0
5921,perov_5921.cif,0.196962760877,0.0036749309468000002,0.74,True,6.57208405083263e-15,SrTlO2F,5.785336232933747,5.785336232933747,0.0
5922,perov_5922.cif,0.0572247280993,0.0036749309468000002,2.16,True,0.0,FeCaO2F,5.551340666095268,5.551340666095268,0.0
5923,perov_5923.cif,0.046710223612199994,0.0018374654734000001,2.46,True,1.3321287879672037,CuSrO2N,5.169951567205887,5.169951567205887,0.0
5924,perov_5924.cif,0.35082620959,0.0018374654734000001,0.76,True,0.006076512245620335,BaIrO2N,5.677538434166211,5.677538434166211,0.0
5925,perov_5925.cif,0.323967452106,0.0036749309468000002,1.68,True,0.055274076369187235,HfCuO2F,6.180371981222796,6.180371981222796,0.0
5926,perov_5926.cif,0.170978612801,0.0036749309468000002,1.0,True,2.432611227448449e-15,TeYO2F,6.351564926840662,6.351564926840662,0.0
5927,perov_5927.cif,0.288856973828,0.0018374654734000001,0.32,True,-0.2882488790524817,BaTaON2,5.3475701417603965,5.3475701417603965,0.0
5928,perov_5928.cif,0.153933182527,0.0018374654734000001,2.2,True,-3.6048815552246936,CoLaO2N,5.568265726996469,5.568265726996469,0.0
5929,perov_5929.cif,0.266309265312,0.0018374654734000001,2.6,True,0.01405405653503067,PtZnN3,6.2483261067086255,6.2483261067086255,0.0
5930,perov_5930.cif,0.0558447868429,0.0018374654734000001,2.4,True,6.0000000004527125,CoNaO3,5.542933251847702,5.542933251847702,0.0
5931,perov_5931.cif,0.228884405506,0.0018374654734000001,1.82,True,0.009632682142960649,InCdN3,5.552310314573176,5.552310314573176,0.0
5932,perov_5932.cif,0.120076862721,0.0018374654734000001,2.24,True,-0.6242825385498773,CuNaON2,5.510580288418706,5.510580288418706,0.0
5933,perov_5933.cif,0.21031735573199997,0.0018374654734000001,2.22,True,-1.151808406628242,TiAgO3,5.795853491294747,5.795853491294747,0.0
5934,perov_5934.cif,0.194545742854,0.0018374654734000001,0.52,True,-0.7630796832877655,CsSnO3,5.258471201455167,5.258471201455167,0.0
5935,perov_5935.cif,0.302961941452,0.0018374654734000001,2.6,True,-0.008913403184731291,HfHgO2N,5.930753161751659,5.930753161751659,0.0
5936,perov_5936.cif,0.17216894839000002,0.0018374654734000001,1.54,True,2.0003452446510828,CrPbON2,5.650296887079642,5.650296887079642,0.0
5937,perov_5937.cif,0.056291320254800006,0.0036749309468000002,2.02,True,3.039363827443949,CdNaOFN,5.907527344613134,5.907527344613134,0.0
5938,perov_5938.cif,0.257171207286,0.0018374654734000001,1.54,True,2.914910275213738,MoIrO2S,5.931946701342793,5.931946701342793,0.0
5939,perov_5939.cif,0.263895068765,0.0018374654734000001,1.06,True,0.006016934438571654,NiSiON2,6.083936680594494,6.083936680594494,0.0
5940,perov_5940.cif,0.20866039522399998,0.0036749309468000002,0.88,True,0.010829607914089934,BiLaO2F,5.928951385386635,5.928951385386635,0.0
5941,perov_5941.cif,0.259646024037,0.0018374654734000001,1.1,True,-0.3655189886119117,OsMoO2S,5.82841893791198,5.82841893791198,0.0
5942,perov_5942.cif,0.212995079353,0.0018374654734000001,2.32,True,1.6939758809962835,SiPbN3,5.894296215048772,5.894296215048772,0.0
5943,perov_5943.cif,0.0340619995408,0.0018374654734000001,1.56,True,2.371644116289048,TlBaO2S,5.533724008145564,5.533724008145564,0.0
5944,perov_5944.cif,0.2301143323,0.0018374654734000001,1.8,True,3.1561313865126337,AgGeN3,6.0110287738727175,6.0110287738727175,0.0
5945,perov_5945.cif,0.259225740728,0.0018374654734000001,1.5,True,-1.091896982651985,ZrMgON2,5.584692815495505,5.584692815495505,0.0
5946,perov_5946.cif,0.228584090114,0.0018374654734000001,1.7,True,-0.03186905799580516,SbBaON2,5.530292043365422,5.530292043365422,0.0
5947,perov_5947.cif,0.199059988763,0.0018374654734000001,0.62,True,0.9998415771733242,SrLaO3,4.81154302299958,4.81154302299958,0.0
5948,perov_5948.cif,0.310377315801,0.0018374654734000001,1.24,True,1.9743772481044792,MoVN3,5.5769155494633935,5.5769155494633935,0.0
5949,perov_5949.cif,0.143996647639,0.0036749309468000002,1.96,True,1.8752650871817271,PtAuO2F,7.171571589065808,7.171571589065808,0.0
5950,perov_5950.cif,0.215756929874,0.0018374654734000001,0.4,True,-3.5982152094174946,CrSnO3,5.846275333177606,5.846275333177606,0.0
5951,perov_5951.cif,0.336027399886,0.0018374654734000001,1.4,True,0.02861397849197012,RhSiON2,6.056027536900227,6.056027536900227,0.0
5952,perov_5952.cif,0.266116268548,0.0018374654734000001,0.66,True,0.8255749825913553,SrMoO2S,4.874106203721241,4.874106203721241,0.0
5953,perov_5953.cif,0.0741508011354,0.0018374654734000001,4.2,True,4.999914953406648,CuRbN3,5.260407893766819,5.260407893766819,0.0
5954,perov_5954.cif,0.257495935356,0.0036749309468000002,1.6,True,0.18449319370868628,ScRhO2F,6.104514376486488,6.104514376486488,0.0
5955,perov_5955.cif,0.166670148309,0.0018374654734000001,2.16,True,6.762691552948652,FeInON2,5.494779952437722,5.494779952437722,0.0
5956,perov_5956.cif,0.19320859001899998,0.0018374654734000001,1.84,True,0.7072367939672972,SbCaON2,5.316253032695856,5.316253032695856,0.0
5957,perov_5957.cif,0.266234428528,0.0036749309468000002,1.92,True,1.894315502912041,NbPtOFN,6.618187402634906,6.618187402634906,0.0
5958,perov_5958.cif,-0.0013330822699300002,0.0018374654734000001,3.8,True,0.0,KKON2,4.715186835400067,4.715186835400067,0.0
5959,perov_5959.cif,0.0435596247083,0.0018374654734000001,1.66,True,0.0,TlCaO2S,5.319552170070064,5.319552170070064,0.0
5960,perov_5960.cif,0.17185149864799998,0.0018374654734000001,0.32,True,0.9999883116089876,KVO2N,5.1410099688537265,5.1410099688537265,0.0
5961,perov_5961.cif,0.0232824850181,0.0018374654734000001,2.96,True,1.3385885583144983,AsKO2S,5.383866897739615,5.383866897739615,0.0
5962,perov_5962.cif,0.0368236781454,0.0018374654734000001,2.62,True,0.9276528976466948,ZnKO3,5.401471153806647,5.401471153806647,0.0
5963,perov_5963.cif,0.290968533772,0.0018374654734000001,2.22,True,-2.7796786013835844,ReRhO2N,5.893149224327061,5.893149224327061,0.0
5964,perov_5964.cif,0.315751813211,0.0018374654734000001,2.14,True,3.074102380511292,ReRuON2,5.905329525614839,5.905329525614839,0.0
5965,perov_5965.cif,0.310585600059,0.0018374654734000001,1.8,True,0.7752080447861243,AsIrN3,6.4162912870392415,6.4162912870392415,0.0
5966,perov_5966.cif,0.276266576825,0.0036749309468000002,1.14,False,4.167615851248454e-15,YInOFN,6.275828627824242,4.975828627824242,1.3
5967,perov_5967.cif,0.218894240671,0.0036749309468000002,0.58,True,2.856904887653161e-15,GaGeO2F,6.134648706138137,6.134648706138137,0.0
5968,perov_5968.cif,0.22411599386300002,0.0036749309468000002,1.38,True,2.9999476665888696,WMgO2F,6.276317790547958,6.276317790547958,0.0
5969,perov_5969.cif,0.26611226479600003,0.0036749309468000002,1.14,True,2.0009486331418462,TiZrOFN,5.901197082883719,5.901197082883719,0.0
5970,perov_5970.cif,0.11721158562,0.0018374654734000001,1.92,True,5.0335008587865104e-06,CsZnO2S,5.096087691735843,5.096087691735843,0.0
5971,perov_5971.cif,0.0989963245531,0.0018374654734000001,2.62,True,0.7511717331920025,BeBaO2N,5.580730461819146,5.580730461819146,0.0
5972,perov_5972.cif,0.221771192634,0.0018374654734000001,1.44,True,-0.028284081771652755,ZrSrO2N,4.959651357677647,4.959651357677647,0.0
5973,perov_5973.cif,0.31446790975600003,0.0036749309468000002,1.44,True,2.9969798892033133,WAlOFN,6.041538746226169,6.041538746226169,0.0
5974,perov_5974.cif,0.13201329217,0.0018374654734000001,1.06,True,1.6572802753198022,RbScO2N,5.030571632593858,5.030571632593858,0.0
5975,perov_5975.cif,0.21856564466400002,0.0036749309468000002,2.06,True,0.8309864213223612,BBO2F,6.414917172354287,6.414917172354287,0.0
5976,perov_5976.cif,0.304120049986,0.0018374654734000001,0.9,True,0.008051236989324197,AuReO3,6.294207018178755,6.294207018178755,0.0
5977,perov_5977.cif,0.23930175252500002,0.0036749309468000002,0.72,True,3.3754845972635867,InMnOFN,5.8014552958239785,5.8014552958239785,0.0
5978,perov_5978.cif,0.231092582657,0.0018374654734000001,1.14,True,0.0009434741258012024,AlAlO3,5.354007789249493,5.354007789249493,0.0
5979,perov_5979.cif,0.176154884281,0.0018374654734000001,1.64,True,-1.683098851125518,RuPbO2N,5.910950135445239,5.910950135445239,0.0
5980,perov_5980.cif,0.22363586062399998,0.0018374654734000001,2.2,True,3.6736791804288345,HgCuN3,6.17604355249694,6.17604355249694,0.0
5981,perov_5981.cif,0.100026281232,0.0018374654734000001,3.76,True,0.0,RuCsO2S,5.107488449331507,5.107488449331507,0.0
5982,perov_5982.cif,0.195767783505,0.0018374654734000001,1.64,True,-0.6736573206483039,CuPtO2N,6.345290569206673,6.345290569206673,0.0
5983,perov_5983.cif,0.20187446207499998,0.0018374654734000001,-0.64,False,-0.00011421299213988496,KTaO3,7.513697538519135,3.1136975385191343,4.4
5984,perov_5984.cif,0.204699304721,0.0018374654734000001,1.3,True,-0.0015810397202749512,BiYON2,5.539866007204474,5.539866007204474,0.0
5985,perov_5985.cif,0.179152859712,0.0018374654734000001,2.54,True,4.662482060040112,RhLaON2,5.529270531974089,5.529270531974089,0.0
5986,perov_5986.cif,0.12937615871,0.0036749309468000002,1.78,True,0.9252518751496835,SiYOFN,6.129648210968318,6.129648210968318,0.0
5987,perov_5987.cif,0.241326389902,0.0018374654734000001,1.0,True,5.436966500629383,FeCoO3,5.949437185133654,5.949437185133654,0.0
5988,perov_5988.cif,0.24238967220199997,0.0018374654734000001,1.1,True,2.9893511234859567,WInO3,5.662912611741363,5.662912611741363,0.0
5989,perov_5989.cif,0.203462771792,0.0036749309468000002,1.38,True,0.9315270145992864,CsRhOFN,5.571068999845728,5.571068999845728,0.0
5990,perov_5990.cif,0.173710613748,0.0018374654734000001,2.52,True,3.6664529880287295,NiLaON2,5.554752121161237,5.554752121161237,0.0
5991,perov_5991.cif,0.340063542741,0.0036749309468000002,1.16,True,-7.884197184139999e-16,BiSiO2F,6.4937847853910124,6.4937847853910124,0.0
5992,perov_5992.cif,0.17128150147399998,0.0018374654734000001,2.48,True,0.4765861202433665,NaZnN3,5.464640804953889,5.464640804953889,0.0
5993,perov_5993.cif,0.10822874045099999,0.0018374654734000001,2.24,True,0.9224705397198536,CuHgO3,6.307636957611279,6.307636957611279,0.0
5994,perov_5994.cif,0.20015273428599997,0.0018374654734000001,0.82,False,-1.135265169654159e-05,AuNbON2,6.653259088081313,5.753259088081314,0.9
5995,perov_5995.cif,0.18997381514400002,0.0018374654734000001,1.52,True,1.0376549419270005,GaPdON2,5.632157063585037,5.632157063585037,0.0
5996,perov_5996.cif,0.373173937335,0.0036749309468000002,0.5,False,8.175386946965214e-16,LaGaOFN,6.299992012693273,4.899992012693272,1.4
5997,perov_5997.cif,0.165851277675,0.0036749309468000002,0.64,True,3.711285878413381,GaFeO2F,5.98333526994588,5.98333526994588,0.0
5998,perov_5998.cif,0.32108325356600004,0.0018374654734000001,1.44,True,0.3490471105356843,AsSiN3,6.270428368760272,6.270428368760272,0.0
5999,perov_5999.cif,0.0485533868693,0.0018374654734000001,3.08,True,1.4716661752090552,BeCaO2N,5.364739331966558,5.364739331966558,0.0
6000,perov_6000.cif,0.22314746608199998,0.0018374654734000001,1.38,True,0.0,VNbO2S,5.50996151954242,5.50996151954242,0.0
6001,perov_6001.cif,0.30232099549400004,0.0018374654734000001,1.5,True,-2.3550762762576056,IrMoO2N,6.119924233223418,6.119924233223418,0.0
6002,perov_6002.cif,0.172430190733,0.0018374654734000001,0.68,True,-1.8581500137652502,VInO3,5.4401368482388985,5.4401368482388985,0.0
6003,perov_6003.cif,0.22497688292800003,0.0036749309468000002,0.02,True,3.486510708246055e-08,NaTaO2F,5.85779109832235,5.85779109832235,0.0
6004,perov_6004.cif,0.30419050049199997,0.0018374654734000001,1.18,True,-3.3091991569377885,CoSiO2N,6.098737687090328,6.098737687090328,0.0
6005,perov_6005.cif,0.284341710181,0.0036749309468000002,2.06,True,1.6330925764514854,HfAsO2F,6.3916676703858695,6.3916676703858695,0.0
6006,perov_6006.cif,0.211983391688,0.0018374654734000001,1.14,True,0.3603138444734012,CuBeO2S,5.994747375448264,5.994747375448264,0.0
6007,perov_6007.cif,0.305876451394,0.0018374654734000001,2.14,True,0.0,TaLiN3,5.4348894795742035,5.4348894795742035,0.0
6008,perov_6008.cif,0.139445913082,0.0018374654734000001,1.3,True,0.9985923096181448,MgLaO3,5.456128974924903,5.456128974924903,0.0
6009,perov_6009.cif,0.120365875389,0.0036749309468000002,1.72,True,4.095971862440576,FeAgO2F,6.388368169631201,6.388368169631201,0.0
6010,perov_6010.cif,0.357300497688,0.0018374654734000001,1.56,True,0.0028348072440529393,HfCuN3,5.671881191232357,5.671881191232357,0.0
6011,perov_6011.cif,0.21171829808200002,0.0018374654734000001,1.9,True,3.8873645396376335,RhCuO3,6.067730449808542,6.067730449808542,0.0
6012,perov_6012.cif,0.224429319086,0.0018374654734000001,1.52,True,0.0,NiVN3,5.713098107118844,5.713098107118844,0.0
6013,perov_6013.cif,0.159285078134,0.0036749309468000002,1.74,True,4.176594263724159,FePbOFN,6.1780461804089475,6.1780461804089475,0.0
6014,perov_6014.cif,0.19941510638300003,0.0018374654734000001,0.98,True,0.053940260074512025,SrNiO2S,4.993126878002552,4.993126878002552,0.0
6015,perov_6015.cif,0.09094387553,0.0018374654734000001,2.98,True,0.0,IrSrO3,5.392513440889419,5.392513440889419,0.0
6016,perov_6016.cif,0.11072657213199999,0.0036749309468000002,2.54,True,1.0006854328768608,NbSrOFN,5.392299684487488,5.392299684487488,0.0
6017,perov_6017.cif,0.321976068185,0.0018374654734000001,0.92,True,1.7605762582834146,LaScN3,5.2200099217040785,5.2200099217040785,0.0
6018,perov_6018.cif,0.189796855592,0.0018374654734000001,1.58,True,0.20517408612076335,HgPdO3,6.299166510356223,6.299166510356223,0.0
6019,perov_6019.cif,0.216698979836,0.0018374654734000001,1.46,True,0.041047550136440236,YPbON2,5.4792462170518315,5.4792462170518315,0.0
6020,perov_6020.cif,0.222314417552,0.0018374654734000001,1.54,True,2.3237354644925787,HgTiN3,5.861632225120872,5.861632225120872,0.0
6021,perov_6021.cif,0.36237719426,0.0018374654734000001,0.68,True,-0.00019988863415650772,LaSiO2S,5.508062335129837,5.508062335129837,0.0
6022,perov_6022.cif,0.19049113820799998,0.0018374654734000001,0.98,True,1.8884735791147026e-05,TeInO2S,5.697218489718055,5.697218489718055,0.0
6023,perov_6023.cif,0.372909201556,0.0018374654734000001,1.18,True,-2.052332432209381,CrBO2N,5.802630535160159,5.802630535160159,0.0
6024,perov_6024.cif,0.151628080674,0.0036749309468000002,1.28,True,3.015041759426808,CrInOFN,5.8014552958239785,5.8014552958239785,0.0
6025,perov_6025.cif,0.100282986649,0.0036749309468000002,3.0,True,1.3409249950805238,PtCsO2F,5.90837427263314,5.90837427263314,0.0
6026,perov_6026.cif,0.12227815495,0.0018374654734000001,2.48,True,1.2085920713592468,CuMgON2,5.821496168100418,5.821496168100418,0.0
6027,perov_6027.cif,0.244780412033,0.0036749309468000002,0.28,False,3.2631700928037553e-15,CdAlO2F,6.442420743016497,5.742420743016497,0.7
6028,perov_6028.cif,0.135290813432,0.0036749309468000002,1.3,True,1.9988656452260007,CdMgOFN,6.240839621172165,6.240839621172165,0.0
6029,perov_6029.cif,0.347721932876,0.0018374654734000001,1.02,True,0.0021533860239522085,HfTiN3,5.383135867645102,5.383135867645102,0.0
6030,perov_6030.cif,0.219742079309,0.0018374654734000001,0.8,True,2.9962435494801416,RhTiO3,5.75883314870172,5.75883314870172,0.0
6031,perov_6031.cif,0.258255733442,0.0018374654734000001,2.02,True,1.1063433724084035,CsBO2N,5.219214597824881,5.219214597824881,0.0
6032,perov_6032.cif,0.254139735535,0.0018374654734000001,1.58,True,0.8811214971604642,OsNiO2S,5.970742950354429,5.970742950354429,0.0
6033,perov_6033.cif,0.124770699,0.0018374654734000001,1.6,True,0.0,TlAgO2S,6.121630756246039,6.121630756246039,0.0
6034,perov_6034.cif,0.179944252291,0.0036749309468000002,1.0,True,0.9008974095591072,AuHfOFN,6.455680994921264,6.455680994921264,0.0
6035,perov_6035.cif,0.23006015551800002,0.0018374654734000001,2.14,True,0.0012679280643794757,ZrNaON2,5.286424186719873,5.286424186719873,0.0
6036,perov_6036.cif,0.21311747304499998,0.0018374654734000001,1.76,True,0.06672635148927243,SbAgON2,6.117834177103032,6.117834177103032,0.0
6037,perov_6037.cif,0.276117163133,0.0036749309468000002,1.08,True,5.998248242018954,MoCrOFN,6.074038393009161,6.074038393009161,0.0
6038,perov_6038.cif,0.17803298608100002,0.0018374654734000001,1.48,True,0.9364215689448336,BeRuN3,6.103829098472214,6.103829098472214,0.0
6039,perov_6039.cif,0.33833389449900003,0.0018374654734000001,1.98,True,-0.0001575978884193337,HfPdO3,5.784953384288483,5.784953384288483,0.0
6040,perov_6040.cif,0.11996219274900001,0.0018374654734000001,2.16,True,1.9182164065368208,HgLiO2N,5.7845858696776284,5.7845858696776284,0.0
6041,perov_6041.cif,0.17453788832699998,0.0018374654734000001,2.46,True,-0.00011565052737886579,CsTlON2,5.444726278375331,5.444726278375331,0.0
6042,perov_6042.cif,0.252699832721,0.0018374654734000001,1.92,True,0.6598939747190187,RhPdN3,5.933163820853795,5.933163820853795,0.0
6043,perov_6043.cif,0.1363215427,0.0018374654734000001,2.06,True,3.247863251006297,PdCdO3,6.095786294748608,6.095786294748608,0.0
6044,perov_6044.cif,0.13954490988600002,0.0018374654734000001,1.08,True,-0.4613327313619498,BeNbON2,6.0037689972814965,6.0037689972814965,0.0
6045,perov_6045.cif,0.268805647907,0.0018374654734000001,0.98,True,0.29536651774765943,GeMnN3,5.802041099100312,5.802041099100312,0.0
6046,perov_6046.cif,0.09817720700719999,0.0036749309468000002,3.26,True,2.348000708782072,MoRbOFN,5.536204400546846,5.536204400546846,0.0
6047,perov_6047.cif,0.142864805899,0.0018374654734000001,3.12,True,1.3706939439176509,KSrN3,4.5070224240233765,4.5070224240233765,0.0
6048,perov_6048.cif,0.156446495691,0.0036749309468000002,1.56,True,2.5898305595045006,SnLiOFN,5.936944834841732,5.936944834841732,0.0
6049,perov_6049.cif,0.19699928922899998,0.0036749309468000002,1.74,True,7.13678195445522e-14,BWOFN,6.402329432489142,6.402329432489142,0.0
6050,perov_6050.cif,0.155587241258,0.0018374654734000001,1.66,True,-0.04281592790016174,AuCaO2N,5.542996079842094,5.542996079842094,0.0
6051,perov_6051.cif,0.335095664049,0.0018374654734000001,0.92,True,2.2839449156224685,LaGaN3,5.175496637603373,5.175496637603373,0.0
6052,perov_6052.cif,0.31561205725900005,0.0018374654734000001,1.52,True,1.8381276725837452,CoSiN3,6.0136164907252265,6.0136164907252265,0.0
6053,perov_6053.cif,0.19695778253,0.0018374654734000001,1.04,True,-3.4045144123518933,CrBiO2N,5.7530987022561435,5.7530987022561435,0.0
6054,perov_6054.cif,0.410682923609,0.0018374654734000001,0.3,True,-0.00018284258725920205,LaCrN3,5.333725034596425,5.333725034596425,0.0
6055,perov_6055.cif,0.22609828957400002,0.0018374654734000001,2.1,True,2.9268980563314027,PtCuO3,6.390040747695685,6.390040747695685,0.0
6056,perov_6056.cif,0.17532057805100001,0.0018374654734000001,1.8,True,-0.6881956273805852,AuBaO2N,5.7661640497972515,5.7661640497972515,0.0
6057,perov_6057.cif,-0.004214689334889999,0.0036749309468000002,2.42,True,0.0,PdNaO2F,5.954552251657031,5.954552251657031,0.0
6058,perov_6058.cif,0.26706566853,0.0036749309468000002,1.04,True,2.7110013998163933,NbNiO2F,6.357855746057293,6.357855746057293,0.0
6059,perov_6059.cif,0.2518033948,0.0036749309468000002,1.46,True,4.1989941338079895,MoSbOFN,6.404972839431697,6.404972839431697,0.0
6060,perov_6060.cif,0.258689446341,0.0018374654734000001,0.48,True,3.5316899655252527,PbFeO3,5.8313903349321565,5.8313903349321565,0.0
6061,perov_6061.cif,0.155435149825,0.0018374654734000001,1.46,True,-1.349481344180819,LiPtO3,5.901485221128647,5.901485221128647,0.0
6062,perov_6062.cif,0.15398489224300002,0.0018374654734000001,1.96,True,4.015622745037476,CdYN3,5.584181536769116,5.584181536769116,0.0