,id,fermi level,fermi width,e_form,gap is direct,mu_b,formula,vbm,cbm,gap gllbsc
2669,perov_2669.cif,0.21365459062199998,0.0018374654734000001,0.66,True,0.9995980413541332,VZrON2,5.539282780655213,5.539282780655213,0.0
2670,perov_2670.cif,0.206732547738,0.0018374654734000001,1.16,True,-2.9598309441302995,CrPtO3,6.156822210589768,6.156822210589768,0.0
2671,perov_2671.cif,0.272916327502,0.0018374654734000001,2.04,True,0.03697757010522551,HfYN3,5.29943608873611,5.29943608873611,0.0
2672,perov_2672.cif,0.17873472546900002,0.0036749309468000002,2.16,True,1.6190932859656293,RuLiOFN,5.991172514541634,5.991172514541634,0.0
2673,perov_2673.cif,0.219727770286,0.0018374654734000001,2.3,True,-0.4912353206634215,OsAuO3,6.5489838610082565,6.5489838610082565,0.0
2674,perov_2674.cif,0.186007252533,0.0036749309468000002,0.38,True,5.000151938283994,MnScO2F,5.930154628516491,5.930154628516491,0.0
2675,perov_2675.cif,0.216574294584,0.0036749309468000002,0.86,True,2.2838145527891958,CoNbOFN,6.2843695073444215,6.2843695073444215,0.0
2676,perov_2676.cif,0.10886418928,0.0036749309468000002,0.76,True,0.9871377548416902,AgScO2F,6.143756911865821,6.143756911865821,0.0
2677,perov_2677.cif,0.145293860494,0.0036749309468000002,1.28,True,2.4938958274755225,CoBiO2F,6.363121147843593,6.363121147843593,0.0
2678,perov_2678.cif,0.23011614342300002,0.0036749309468000002,2.12,True,0.0,IrPdOFN,6.704035060986573,6.704035060986573,0.0
2679,perov_2679.cif,0.177390936642,0.0018374654734000001,0.86,True,0.002386896657530002,GeLaO2S,5.470525192348348,5.470525192348348,0.0
2680,perov_2680.cif,0.0368401722922,0.0018374654734000001,2.66,True,-0.06440228883353705,AuNaO2N,5.837528411175243,5.837528411175243,0.0
2681,perov_2681.cif,0.192941314304,0.0036749309468000002,0.7,True,-4.114788081410153,HgFeO2F,6.598533770397715,6.598533770397715,0.0
2682,perov_2682.cif,0.253961351929,0.0018374654734000001,2.34,True,2.434744608655297,OsAuON2,6.457578496517048,6.457578496517048,0.0
2683,perov_2683.cif,0.11366582568499999,0.0018374654734000001,1.42,True,1.9944764497252692,RbAlO2S,4.837491839247641,4.837491839247641,0.0
2684,perov_2684.cif,0.0281179438728,0.0036749309468000002,1.9,True,0.0,PdBaO2F,5.881757262271131,5.881757262271131,0.0
2685,perov_2685.cif,0.225616877374,0.0018374654734000001,1.8,True,3.4158635000606306,MnAgN3,5.761105502866771,5.761105502866771,0.0
2686,perov_2686.cif,0.273540552733,0.0036749309468000002,1.06,True,3.167078346620672,NbNbOFN,6.194125777221808,6.194125777221808,0.0
2687,perov_2687.cif,0.320998269796,0.0036749309468000002,1.44,True,4.509818577596472,MoSiO2F,6.4260255551746335,6.4260255551746335,0.0
2688,perov_2688.cif,0.184794098209,0.0036749309468000002,1.54,True,3.243754710813896,NbBiO2F,6.271746541857679,6.271746541857679,0.0
2689,perov_2689.cif,0.369922974965,0.0018374654734000001,0.62,True,0.0009345097232049682,YMoO2N,5.520722663497079,5.520722663497079,0.0
2690,perov_2690.cif,0.21209522697,0.0018374654734000001,1.96,True,-1.1035386251688848,HgPdON2,6.211247892278992,6.211247892278992,0.0
2691,perov_2691.cif,0.22306894177900002,0.0036749309468000002,1.38,True,3.72191103503129e-11,GeBeOFN,6.633562199598312,6.633562199598312,0.0
2692,perov_2692.cif,0.170963865808,0.0018374654734000001,2.04,True,2.7986693499601856,PtZnO2S,6.14213147754919,6.14213147754919,0.0
2693,perov_2693.cif,0.08230603766280001,0.0018374654734000001,3.72,True,0.0006055373527899535,BHgON2,6.165926147075349,6.165926147075349,0.0
2694,perov_2694.cif,-0.0466003585688,0.0018374654734000001,2.72,True,0.0,KRbO2S,4.571748300269267,4.571748300269267,0.0
2695,perov_2695.cif,0.252085146296,0.0036749309468000002,1.12,True,0.0,MnTaO2F,6.178364062676296,6.178364062676296,0.0
2696,perov_2696.cif,0.181720214656,0.0018374654734000001,0.86,True,1.5629681288965147,LiSiO2N,5.678839079519845,5.678839079519845,0.0
2697,perov_2697.cif,0.207788767196,0.0018374654734000001,2.0,True,0.7429623770662525,VScN3,5.406677184796685,5.406677184796685,0.0
2698,perov_2698.cif,0.19504809767499998,0.0018374654734000001,0.92,True,1.3494494013898386,KAsO2N,5.554476321991825,5.554476321991825,0.0
2699,perov_2699.cif,0.245364939831,0.0036749309468000002,-0.02,True,0.013789139837768971,AgTaO2F,6.400906770889157,6.400906770889157,0.0
2700,perov_2700.cif,0.190027490222,0.0018374654734000001,1.8,True,-0.8092570020393112,ZrRbO3,5.153952764118584,5.153952764118584,0.0
2701,perov_2701.cif,0.20993562621800002,0.0018374654734000001,1.58,True,1.0699050639964545,IrZnO3,6.32786549632034,6.32786549632034,0.0
2702,perov_2702.cif,0.348144191551,0.0018374654734000001,0.54,True,0.001269950277976051,CdReO3,5.970168731047711,5.970168731047711,0.0
2703,perov_2703.cif,0.22185441065900002,0.0018374654734000001,2.0,True,0.027822244965603808,SiPtO3,6.467991124672924,6.467991124672924,0.0
2704,perov_2704.cif,0.205909061537,0.0018374654734000001,1.24,True,4.384518474612894,CoNiO3,6.045903515404159,6.045903515404159,0.0
2705,perov_2705.cif,0.220399798914,0.0018374654734000001,0.6,True,0.0018059457654509008,InGaO3,5.313483302436572,5.313483302436572,0.0
2706,perov_2706.cif,0.230679280397,0.0036749309468000002,0.64,True,-5.1168212619945385e-15,HgGeO2F,6.765405050976742,6.765405050976742,0.0
2707,perov_2707.cif,0.144511075832,0.0018374654734000001,2.76,True,5.163817125345833,RbAgN3,5.2509805788673365,5.2509805788673365,0.0
2708,perov_2708.cif,0.0331702483456,0.0036749309468000002,1.76,True,0.0,PdCaO2F,5.654115485753137,5.654115485753137,0.0
2709,perov_2709.cif,0.230059923401,0.0018374654734000001,1.82,True,1.1432211738671378,MoAgN3,5.815809358203884,5.815809358203884,0.0
2710,perov_2710.cif,0.132802158848,0.0018374654734000001,0.92,True,-0.002768886321141166,KSbO2S,5.289169541690028,5.289169541690028,0.0
2711,perov_2711.cif,0.249941131731,0.0018374654734000001,1.22,True,0.0006104852688011421,ZnOsN3,6.087716514624022,6.087716514624022,0.0
2712,perov_2712.cif,0.266043684733,0.0018374654734000001,1.3,True,-0.06948994115137397,WScN3,5.6280827617987335,5.6280827617987335,0.0
2713,perov_2713.cif,0.218072663067,0.0036749309468000002,1.66,True,-0.07816120329175873,PtRhOFN,6.714609390070254,6.714609390070254,0.0
2714,perov_2714.cif,0.258933264966,0.0018374654734000001,1.3,True,-2.115214583910145,CrNiO2N,5.832087026740693,5.832087026740693,0.0
2715,perov_2715.cif,0.231586571679,0.0036749309468000002,2.16,True,-1.7660818216715104e-15,ScAuOFN,6.4289563828481615,6.4289563828481615,0.0
2716,perov_2716.cif,0.133229896992,0.0018374654734000001,1.12,True,2.999999806771143,SrLiO3,4.808352341795283,4.808352341795283,0.0
2717,perov_2717.cif,0.284192241889,0.0018374654734000001,0.26,True,2.394312015229669,InCrO3,5.475930310765267,5.475930310765267,0.0
2718,perov_2718.cif,0.143707569415,0.0018374654734000001,2.12,True,0.36623796980519785,ZnHgON2,6.211247892278992,6.211247892278992,0.0
2719,perov_2719.cif,0.222973115668,0.0018374654734000001,2.04,True,-0.002411101887274809,SrAuON2,5.40025069340099,5.40025069340099,0.0
2720,perov_2720.cif,0.14538527042899999,0.0018374654734000001,2.5,True,-6.756077561398719e-05,BTiON2,5.6758124594272585,5.6758124594272585,0.0
2721,perov_2721.cif,0.185622413905,0.0018374654734000001,1.6,True,-0.0001392562568227618,BGeO2S,5.868391673207456,5.868391673207456,0.0
2722,perov_2722.cif,0.23570158549000003,0.0018374654734000001,0.94,True,3.492943607556949,ZnFeO2S,5.865716393678273,5.6657163936782755,0.2
2723,perov_2723.cif,0.41593500483,0.0018374654734000001,0.78,True,0.4995702766482441,TaSiON2,5.998614064951821,5.998614064951821,0.0
2724,perov_2724.cif,0.272896531486,0.0018374654734000001,1.3,True,3.2684507586064253,RuMoON2,5.872569750516055,5.872569750516055,0.0
2725,perov_2725.cif,0.113083353604,0.0018374654734000001,2.98,True,1.3333027812111862,NaSrN3,4.6568861186260015,4.6568861186260015,0.0
2726,perov_2726.cif,0.149795157222,0.0018374654734000001,2.18,True,2.34603725464601,BeHfN3,5.774451503854497,5.774451503854497,0.0
2727,perov_2727.cif,0.118401877558,0.0018374654734000001,1.32,True,1.7848047253311905,GaMgO3,5.519671540823959,5.519671540823959,0.0
2728,perov_2728.cif,0.180989816373,0.0018374654734000001,0.84,True,3.2760895390282485e-05,PbBiO2S,5.62644855205218,5.62644855205218,0.0
2729,perov_2729.cif,0.122817931934,0.0036749309468000002,2.34,True,1.247414056212339,SiCdOFN,6.545731079988962,6.545731079988962,0.0
2730,perov_2730.cif,0.213357221637,0.0018374654734000001,1.46,True,2.9423827082370413,ReCaO2S,4.995620948616418,4.995620948616418,0.0
2731,perov_2731.cif,0.14793850001199998,0.0018374654734000001,2.0,True,3.3518999659589483,GaLiO2N,5.245273853313413,5.245273853313413,0.0
2732,perov_2732.cif,0.262387071374,0.0018374654734000001,0.64,True,0.5008839811823796,NbHfON2,5.583874305594372,5.583874305594372,0.0
2733,perov_2733.cif,0.313041111268,0.0036749309468000002,0.62,True,2.8239761605611626,BiCrOFN,6.1380860943886875,6.1380860943886875,0.0
2734,perov_2734.cif,0.267842120429,0.0018374654734000001,1.36,True,0.008448663192876184,TlRuON2,6.2882490116996435,6.2882490116996435,0.0
2735,perov_2735.cif,0.24292729314199998,0.0018374654734000001,1.32,True,0.015897341745358062,TlRhO2N,6.275278902715403,6.275278902715403,0.0
2736,perov_2736.cif,0.27521403818100004,0.0018374654734000001,0.26,True,0.012683035578149315,SnTaO2S,5.737550616277468,5.737550616277468,0.0
2737,perov_2737.cif,0.23733116867100001,0.0018374654734000001,1.32,True,3.4804009769764384,MnRhN3,5.724307109023474,5.724307109023474,0.0
2738,perov_2738.cif,0.240023765191,0.0018374654734000001,0.92,True,0.6078972542040795,SbRuO2S,5.987794925665513,5.987794925665513,0.0
2739,perov_2739.cif,0.362254854829,0.0018374654734000001,1.12,True,-0.6891357356233121,ZrNbO2N,5.697143355923124,5.697143355923124,0.0
2740,perov_2740.cif,0.432900493793,0.0018374654734000001,1.16,True,-0.00010133417020744176,ZrAsN3,5.9428681796843374,5.9428681796843374,0.0
2741,perov_2741.cif,0.23415585689399998,0.0036749309468000002,0.9,True,0.0,NiWOFN,6.434830237405324,6.434830237405324,0.0
2742,perov_2742.cif,0.264646802334,0.0018374654734000001,0.84,True,0.00025153153679902124,IrWN3,6.181863812019073,6.181863812019073,0.0
2743,perov_2743.cif,0.214409679525,0.0018374654734000001,2.04,True,1.556829628671263,PtTlON2,6.5623330452653965,6.5623330452653965,0.0
2744,perov_2744.cif,0.20108718382899998,0.0018374654734000001,1.32,True,1.6766093991463151,ZnTiON2,5.717531695106367,5.717531695106367,0.0
2745,perov_2745.cif,0.22498332809799998,0.0018374654734000001,2.0,True,1.1312843993155326,IrPbON2,6.073946066019585,6.073946066019585,0.0
2746,perov_2746.cif,0.145026203467,0.0036749309468000002,1.34,True,1.2020114534061044,CaCdOFN,5.609463219067759,5.609463219067759,0.0
2747,perov_2747.cif,0.141736304276,0.0018374654734000001,1.34,True,2.4048431197713285,VSrO2S,4.796700104577622,4.796700104577622,0.0
2748,perov_2748.cif,0.186410791176,0.0018374654734000001,1.6,True,2.1079720736191376,BFeO2S,5.7236455676795925,5.7236455676795925,0.0
2749,perov_2749.cif,0.213826431312,0.0018374654734000001,0.86,False,-7.4282526533610425e-06,ZnGeO2S,6.261526434445949,5.56152643444595,0.7
2750,perov_2750.cif,0.18726101307100002,0.0036749309468000002,1.42,True,4.718737304844113,RuZnO2F,6.524130527510095,6.524130527510095,0.0
2751,perov_2751.cif,0.211305585268,0.0018374654734000001,0.68,True,0.0004897181249816639,SnBiO3,5.964019314004662,5.964019314004662,0.0
2752,perov_2752.cif,0.306078689694,0.0018374654734000001,1.44,True,1.7319606626048591,MoRhN3,5.778661549823321,5.778661549823321,0.0
2753,perov_2753.cif,0.21254569234999998,0.0018374654734000001,2.18,True,4.9732544407694,RbRhN3,5.21744054886641,5.21744054886641,0.0
2754,perov_2754.cif,0.0961237554204,0.0018374654734000001,1.76,True,1.999999842205483,GeCaO3,5.334737914454172,5.334737914454172,0.0
2755,perov_2755.cif,0.151934681328,0.0018374654734000001,2.16,True,0.6091641081099617,PdInON2,5.5965076345669225,5.5965076345669225,0.0
2756,perov_2756.cif,0.21870538900199998,0.0018374654734000001,0.78,True,0.5494747819225091,RhVO2N,5.7673865982249035,5.7673865982249035,0.0
2757,perov_2757.cif,0.11693531000099999,0.0018374654734000001,4.22,True,2.9775524899113552,RhKON2,5.289681507596116,5.289681507596116,0.0
2758,perov_2758.cif,0.280470149635,0.0018374654734000001,0.7,True,0.007969942215940051,RbOsO2N,5.429124687547157,5.429124687547157,0.0
2759,perov_2759.cif,0.12085769220999999,0.0018374654734000001,3.04,True,3.6671054294578735,ReBaO2S,5.196750909689731,5.196750909689731,0.0
2760,perov_2760.cif,0.31807728557500003,0.0018374654734000001,0.2,False,-3.452334754511186e-06,LaInO3,7.407314379539358,3.0973143795393576,4.3
2761,perov_2761.cif,0.19730402248,0.0018374654734000001,2.16,True,-0.0007990197474032619,AuSrON2,5.40025069340099,5.40025069340099,0.0
2762,perov_2762.cif,0.0661829391177,0.0036749309468000002,1.46,True,0.0,CsCsO2F,4.9021408152839925,4.9021408152839925,0.0
2763,perov_2763.cif,0.24182013533799998,0.0018374654734000001,1.04,True,0.4924719973899485,AsNiO3,6.304094212899468,6.304094212899468,0.0
2764,perov_2764.cif,0.26417520417,0.0036749309468000002,0.88,True,1.8332654168138057e-15,BiSbOFN,6.472510079274641,6.472510079274641,0.0
2765,perov_2765.cif,0.229551163003,0.0018374654734000001,0.8,True,0.06323832758618053,MgWO2S,5.662038997536036,5.662038997536036,0.0
2766,perov_2766.cif,0.270254568667,0.0018374654734000001,2.12,True,-1.6397418947089548,TlBeON2,6.3962649414717765,6.3962649414717765,0.0
2767,perov_2767.cif,0.164662960623,0.0018374654734000001,1.68,True,-1.3917765951173586,HfKO3,5.12142638657419,5.12142638657419,0.0
2768,perov_2768.cif,0.290726853274,0.0018374654734000001,0.84,True,0.00044092732380107685,YAlON2,5.272685924268734,5.272685924268734,0.0
2769,perov_2769.cif,0.203598545203,0.0018374654734000001,1.1,True,0.9632810655027946,SbBeO2S,6.090649827718097,6.090649827718097,0.0
2770,perov_2770.cif,0.246453105185,0.0018374654734000001,1.96,True,0.053237911336889696,OsAgN3,6.084977999563752,6.084977999563752,0.0
2771,perov_2771.cif,0.180921735367,0.0018374654734000001,0.94,False,-0.00013373181815224804,SiZrO2S,6.6676522083855465,4.767652208385545,1.9
2772,perov_2772.cif,0.231534893996,0.0018374654734000001,0.58,True,-5.684163497532516e-05,BaTeO2S,5.533724008145564,5.533724008145564,0.0
2773,perov_2773.cif,0.0501502808989,0.0036749309468000002,1.56,True,0.0,LiYOFN,5.592776432508856,5.592776432508856,0.0
2774,perov_2774.cif,0.22594521678000004,0.0018374654734000001,1.46,True,-0.007034439390379994,TaCdO2N,5.954734316336872,5.954734316336872,0.0
2775,perov_2775.cif,0.221719091003,0.0018374654734000001,1.84,True,-0.0006548177178227791,PbAuON2,6.168759551767441,6.168759551767441,0.0
2776,perov_2776.cif,0.21792866245499998,0.0036749309468000002,0.98,True,3.847350146981908,FeAlOFN,5.945142058692106,5.945142058692106,0.0
2777,perov_2777.cif,0.172849571153,0.0018374654734000001,1.94,True,1.3641110423478895,GeTlO2N,6.360494887578293,6.360494887578293,0.0
2778,perov_2778.cif,0.12402218882000002,0.0036749309468000002,1.02,True,4.988600562188782,FeMgO2F,6.1761750503730575,6.1761750503730575,0.0
2779,perov_2779.cif,0.208209540024,0.0018374654734000001,1.46,True,1.8281166655926848,GeSnN3,5.9726340240952185,5.9726340240952185,0.0
2780,perov_2780.cif,0.172698671512,0.0036749309468000002,2.22,True,3.552485876632663,WAgO2F,6.491951485928941,6.491951485928941,0.0
2781,perov_2781.cif,0.118327706275,0.0018374654734000001,1.98,True,-0.26954275445394005,BeNaO2N,5.649799822661286,5.649799822661286,0.0
2782,perov_2782.cif,0.286456573433,0.0018374654734000001,1.24,True,-0.004196497957088778,SbPtO2N,6.44680092282788,6.44680092282788,0.0
2783,perov_2783.cif,0.29870072536,0.0036749309468000002,1.46,True,1.9165336871463197,ZrInO2F,5.81702261042873,5.81702261042873,0.0
2784,perov_2784.cif,0.162903029298,0.0018374654734000001,2.14,True,4.82106216489202,RuCdO3,6.109423536904804,6.109423536904804,0.0
2785,perov_2785.cif,0.168292898956,0.0018374654734000001,3.48,True,0.0,BaRbN3,4.7466889873970715,4.7466889873970715,0.0
2786,perov_2786.cif,0.14855167905400002,0.0036749309468000002,2.6,True,0.0004176936891262529,BiRbOFN,5.594580911079008,5.594580911079008,0.0
2787,perov_2787.cif,0.250735363599,0.0018374654734000001,0.88,False,-0.20936880608185476,YBiO3,6.1032813871946825,5.133281387194684,1.0
2788,perov_2788.cif,0.164709368706,0.0036749309468000002,0.56,True,0.9974548312057472,CsScO2F,5.333916991090625,5.333916991090625,0.0
2789,perov_2789.cif,0.220105109091,0.0018374654734000001,2.98,True,3.731509445844544,TlLiN3,5.761670452533608,5.761670452533608,0.0
2790,perov_2790.cif,0.284340453883,0.0018374654734000001,1.16,True,0.31902178645399626,NbLiO3,5.523346425266381,5.523346425266381,0.0
2791,perov_2791.cif,0.296548321234,0.0018374654734000001,0.56,False,4.4415336475367434e-07,HfZrON2,6.279537609488488,4.679537609488487,1.6
2792,perov_2792.cif,0.29476157957,0.0018374654734000001,2.1,True,4.023147529369962,ReCuO3,5.9835849759052495,5.9835849759052495,0.0
2793,perov_2793.cif,0.224715601681,0.0018374654734000001,0.46,True,-0.00021547651563652418,CaZrO2S,6.949828509669595,2.8498285096695954,4.1
2794,perov_2794.cif,0.148026741712,0.0036749309468000002,0.9,True,-4.537157958000876e-15,CdPbO2F,6.331094586008548,6.331094586008548,0.0
2795,perov_2795.cif,0.287250441096,0.0018374654734000001,1.48,True,-1.9429147983575121,RuOsO2S,5.9976392779362095,5.9976392779362095,0.0
2796,perov_2796.cif,0.0858705328217,0.0018374654734000001,2.76,True,-0.3116156712386329,BeYON2,5.738126419884122,5.738126419884122,0.0
2797,perov_2797.cif,0.260987186783,0.0018374654734000001,1.14,True,-7.118116260520509e-05,InBO2S,5.4230032489323134,5.4230032489323134,0.0
2798,perov_2798.cif,0.21548409745000002,0.0018374654734000001,1.9,True,-0.2611271602840261,VGaN3,5.360572108144057,5.360572108144057,0.0
2799,perov_2799.cif,0.230399094694,0.0036749309468000002,1.16,True,0.3217217800944657,GeRuOFN,6.521538949272159,6.521538949272159,0.0
2800,perov_2800.cif,-0.07420962097589999,0.0036749309468000002,2.26,True,0.0,GaKO2F,5.395121197526853,5.395121197526853,0.0
2801,perov_2801.cif,0.176561340849,0.0036749309468000002,1.14,True,-1.5093530352647865e-15,MgAsOFN,6.4687065614498005,6.4687065614498005,0.0
2802,perov_2802.cif,0.256576336498,0.0036749309468000002,1.22,True,1.9006173171672351,RhGeOFN,6.46251078334417,6.46251078334417,0.0
2803,perov_2803.cif,0.13065526113099998,0.0018374654734000001,2.16,True,0.4355663548299838,CuAgON2,6.021503684173648,6.021503684173648,0.0
2804,perov_2804.cif,0.273443554697,0.0036749309468000002,1.54,True,1.6453670781402257e-07,PtOsO2F,6.938106264524275,6.938106264524275,0.0
2805,perov_2805.cif,0.119691788649,0.0018374654734000001,1.4,True,0.9948390831694491,SiYO3,5.785708020008488,5.785708020008488,0.0
2806,perov_2806.cif,0.264455131862,0.0018374654734000001,1.54,True,0.0,RuAlO2N,5.688115179278437,5.688115179278437,0.0
2807,perov_2807.cif,0.331609411836,0.0018374654734000001,1.24,False,-0.0003641524140015941,HfGaO2N,5.957813587807538,4.797813587807538,1.2
2808,perov_2808.cif,0.079168851506,0.0018374654734000001,2.58,True,-0.0005141731928155796,LiCdON2,5.558617673871046,5.558617673871046,0.0
2809,perov_2809.cif,0.141169266762,0.0036749309468000002,1.64,True,1.202553633624401,CdAgOFN,6.455254403008108,6.455254403008108,0.0
2810,perov_2810.cif,0.301250391131,0.0018374654734000001,1.82,True,0.3146491209457967,OsRhN3,6.046110907675865,6.046110907675865,0.0
2811,perov_2811.cif,0.300330807232,0.0018374654734000001,1.14,True,1.8488971464274555,VCrN3,5.524458743771371,5.524458743771371,0.0
2812,perov_2812.cif,0.155023026923,0.0018374654734000001,-0.58,False,-0.00040877440778386016,NaTaO3,7.790384111205957,3.190384111205958,4.6
2813,perov_2813.cif,0.238580679773,0.0018374654734000001,0.84,True,0.0,PtVO2N,6.073743004113508,6.073743004113508,0.0
2814,perov_2814.cif,0.236414765444,0.0018374654734000001,1.42,True,1.219156601135616,OsBiO2S,5.889876704803907,5.889876704803907,0.0
2815,perov_2815.cif,0.178767761059,0.0018374654734000001,2.36,True,-0.02694573617537553,PtKON2,5.570662812969563,5.570662812969563,0.0
2816,perov_2816.cif,0.126777275548,0.0018374654734000001,1.38,True,2.4668599754543425,TlMgO2S,5.918297465079537,5.918297465079537,0.0