,id,fermi level,fermi width,e_form,gap is direct,mu_b,formula,vbm,cbm,gap gllbsc
452,perov_452.cif,0.287845883895,0.0036749309468000002,1.44,True,3.0095855008769554,HfMnO2F,5.954805765115182,5.954805765115182,0.0
453,perov_453.cif,0.266728937532,0.0018374654734000001,0.76,False,0.008843599086560516,TaLiO3,6.020691061437743,5.080691061437744,0.9
454,perov_454.cif,0.166625245374,0.0036749309468000002,1.82,True,4.354037836401514,OsYO2F,6.206232551124463,6.206232551124463,0.0
455,perov_455.cif,0.144211513751,0.0036749309468000002,2.9,True,0.0,NbBaOFN,5.717352647118681,5.717352647118681,0.0
456,perov_456.cif,0.131651199834,0.0018374654734000001,2.86,True,3.926104292190253,CuHgN3,6.17604355249694,6.17604355249694,0.0
457,perov_457.cif,0.260410223687,0.0018374654734000001,1.74,True,2.232026596350593,TlBeO2N,6.441374616855746,6.441374616855746,0.0
458,perov_458.cif,0.0675081134453,0.0018374654734000001,1.22,True,2.4056312167753937,NaZnO3,5.581076300451636,5.581076300451636,0.0
459,perov_459.cif,0.296138481864,0.0018374654734000001,0.58,True,0.5685956569907731,YAlO2N,5.3098715556679625,5.3098715556679625,0.0
460,perov_460.cif,0.368196016404,0.0018374654734000001,1.0,True,0.385718463086178,AsSiO3,6.4040328379575655,6.4040328379575655,0.0
461,perov_461.cif,0.155207285963,0.0036749309468000002,1.48,True,-1.3008213650044906,PdBiOFN,6.3620399204481926,6.3620399204481926,0.0
462,perov_462.cif,0.199386101938,0.0018374654734000001,0.8,True,0.0015556437749602028,RbMoO2S,5.0295850947485015,5.0295850947485015,0.0
463,perov_463.cif,0.210062809063,0.0036749309468000002,0.42,True,-1.7715251615647363e-07,PdNbO2F,6.372240182168166,6.372240182168166,0.0
464,perov_464.cif,0.326011286624,0.0036749309468000002,1.18,False,5.522785131251784e-15,SiSiOFN,7.590469776736035,5.690469776736036,1.9
465,perov_465.cif,0.34095211368600004,0.0018374654734000001,1.84,True,3.3895406434447963,MoTeON2,6.110829265928773,6.110829265928773,0.0
466,perov_466.cif,0.23480701172200003,0.0018374654734000001,1.66,True,5.4081668245106815,ReNbO2S,5.630110779283871,5.630110779283871,0.0
467,perov_467.cif,0.34950931288599996,0.0018374654734000001,0.08,True,0.0007665225898428331,LaScO3,8.526233049340531,2.1362330493405333,6.4
468,perov_468.cif,0.226664364815,0.0018374654734000001,2.16,True,3.749124725204652,HgPdN3,6.167749820389668,6.167749820389668,0.0
469,perov_469.cif,0.209331255698,0.0036749309468000002,1.24,True,-0.635366477808084,SnPdOFN,6.419803225332173,6.419803225332173,0.0
470,perov_470.cif,0.18410669768500001,0.0036749309468000002,0.84,True,-0.34403744709824313,AuVOFN,6.5260693731981965,6.5260693731981965,0.0
471,perov_471.cif,0.312697521172,0.0018374654734000001,0.94,True,0.14977460152050526,YOsO2S,5.5988131743686536,5.5988131743686536,0.0
472,perov_472.cif,0.26303694105500003,0.0018374654734000001,0.84,True,0.007141618355156255,HgReO2S,5.9379842665533875,5.9379842665533875,0.0
473,perov_473.cif,0.229535468675,0.0018374654734000001,1.3,True,0.9844916452889619,ZrCaO2N,5.0550992354968365,5.0550992354968365,0.0
474,perov_474.cif,0.148771807488,0.0018374654734000001,1.56,True,0.7488411315484385,SiGaO2S,5.572209721585435,5.572209721585435,0.0
475,perov_475.cif,0.210491893673,0.0018374654734000001,0.56,False,0.00015595437699644776,HgTiO3,6.106526445421463,5.866526445421464,0.2
476,perov_476.cif,0.227393306585,0.0018374654734000001,0.72,True,1.6059720701515805,NiVO3,5.834827500261499,5.834827500261499,0.0
477,perov_477.cif,0.108219748564,0.0018374654734000001,0.8,True,1.9990385006541909,NaSnO2N,5.504115463015556,5.504115463015556,0.0
478,perov_478.cif,0.259163279084,0.0036749309468000002,1.88,True,0.018811635857044703,PtBeOFN,6.892333417815786,6.892333417815786,0.0
479,perov_479.cif,0.131918923913,0.0018374654734000001,1.26,True,1.9475864384766484,GeZnO2S,5.91152643444595,5.91152643444595,0.0
480,perov_480.cif,0.133855503774,0.0018374654734000001,1.36,True,3.2610737804110457,KCoO2S,5.1633650615353055,5.1633650615353055,0.0
481,perov_481.cif,0.188490715737,0.0018374654734000001,4.2,True,0.5667660095104311,IrSrN3,5.280011847887113,5.280011847887113,0.0
482,perov_482.cif,0.18111877117,0.0036749309468000002,1.44,True,4.026579849822412,FePtO2F,6.684737874301412,6.684737874301412,0.0
483,perov_483.cif,0.145881717927,0.0036749309468000002,1.58,True,3.366832671369689,MoCdO2F,6.3343463055387925,6.3343463055387925,0.0
484,perov_484.cif,0.210311407336,0.0018374654734000001,1.26,True,0.006883751791260552,RhTiN3,5.6386891916833095,5.6386891916833095,0.0
485,perov_485.cif,0.403762051677,0.0018374654734000001,0.84,True,-0.01608022849366571,HfTiO3,5.497834731569103,5.497834731569103,0.0
486,perov_486.cif,0.09201497439089999,0.0036749309468000002,1.04,True,0.0,RbTlO2F,5.9698824090161695,5.9698824090161695,0.0
487,perov_487.cif,0.304125295799,0.0036749309468000002,0.6,True,0.017795015979515938,PbWO2F,6.3224964176663665,6.3224964176663665,0.0
488,perov_488.cif,0.247794858628,0.0018374654734000001,1.6,True,-0.29800565311288085,ZrBaO2N,5.2586238669520755,5.2586238669520755,0.0
489,perov_489.cif,0.05188544245730001,0.0018374654734000001,3.26,True,1.3240846016655663,BeSrO2N,5.263444983342555,5.263444983342555,0.0
490,perov_490.cif,0.20988584970199997,0.0018374654734000001,1.36,True,1.9998127886026968,SbMgO2N,5.956339913844801,5.956339913844801,0.0
491,perov_491.cif,0.20547976406500001,0.0018374654734000001,1.78,True,0.3254399557122305,RhPdO3,6.059582170020341,6.059582170020341,0.0
492,perov_492.cif,0.346716413731,0.0018374654734000001,1.84,True,0.07179670410924642,HfPdN3,5.66426449249238,5.66426449249238,0.0
493,perov_493.cif,0.180609698851,0.0018374654734000001,1.4,True,0.0361878497086341,BeRuO3,6.233883825009756,6.233883825009756,0.0
494,perov_494.cif,0.102470944922,0.0018374654734000001,3.42,True,-0.9314689036345746,PtKO2N,5.609949927162926,5.609949927162926,0.0
495,perov_495.cif,0.233148770725,0.0018374654734000001,0.9,True,-0.0002080425319433009,PtVON2,6.0312078945168315,6.0312078945168315,0.0
496,perov_496.cif,0.0457905614044,0.0018374654734000001,2.04,True,0.0,LiCdO2N,5.59781983968912,5.59781983968912,0.0
497,perov_497.cif,0.26378831405299996,0.0018374654734000001,1.08,True,0.017037979816061366,HfGaON2,5.340152150668534,5.340152150668534,0.0
498,perov_498.cif,0.272082947176,0.0018374654734000001,1.74,True,1.0046186821991847,RuAlON2,5.6482806649788895,5.6482806649788895,0.0
499,perov_499.cif,0.136495130104,0.0036749309468000002,1.92,True,4.106210674988066,MnHgOFN,6.438707731902512,6.438707731902512,0.0
500,perov_500.cif,0.140855909337,0.0018374654734000001,1.96,True,0.5095249524363936,CuAgO2N,6.0639703548012625,6.0639703548012625,0.0
501,perov_501.cif,0.0851842274111,0.0036749309468000002,1.62,True,2.1568496049845147,AgHgOFN,6.670627936266122,6.670627936266122,0.0
502,perov_502.cif,0.16854559170000002,0.0018374654734000001,0.76,True,0.9968906125597048,CaGaO2S,4.775189371546563,4.775189371546563,0.0
503,perov_503.cif,0.163525496667,0.0036749309468000002,0.22,True,-1.0163285018500767,GaVO2F,5.841153674324327,5.841153674324327,0.0
504,perov_504.cif,0.211652809794,0.0036749309468000002,1.26,True,5.36624275103109e-13,GeRhOFN,6.46251078334417,6.46251078334417,0.0
505,perov_505.cif,0.254868688242,0.0036749309468000002,1.26,True,0.9784875422264748,GeOsO2F,6.677616514340046,6.677616514340046,0.0
506,perov_506.cif,0.135615764163,0.0018374654734000001,2.22,True,1.1408686033579694,ZnHgO2N,6.255052734435138,6.255052734435138,0.0
507,perov_507.cif,0.209452431284,0.0018374654734000001,1.42,True,1.2265755479754608,SrAuO2N,5.438335975671257,5.438335975671257,0.0
508,perov_508.cif,0.19084225512400002,0.0018374654734000001,0.94,True,0.498142160423221,AlHfO2S,5.215884305907206,5.215884305907206,0.0
509,perov_509.cif,0.261257918765,0.0018374654734000001,1.98,True,0.0007386888633647,PtCuN3,6.256728189211485,6.256728189211485,0.0
510,perov_510.cif,0.272559883609,0.0018374654734000001,1.56,True,-1.922208133679724,CrNiON2,5.7912442613007045,5.7912442613007045,0.0
511,perov_511.cif,0.223339592225,0.0036749309468000002,1.24,True,-2.0094318054346783e-16,PtRuOFN,6.775940208773135,6.775940208773135,0.0
512,perov_512.cif,0.42384929831100004,0.0018374654734000001,-0.2,True,2.9999977684378534,LaCrO3,5.447371098339348,5.447371098339348,0.0
513,perov_513.cif,0.08220928054269999,0.0036749309468000002,0.5,True,0.0,RbYO2F,5.355616174162867,5.355616174162867,0.0
514,perov_514.cif,0.162692667913,0.0036749309468000002,1.2,True,4.000055609061897,MoYO2F,5.9317002218589625,5.9317002218589625,0.0
515,perov_515.cif,0.22516111220600002,0.0018374654734000001,0.32,True,2.999983662186465,GeMnO3,5.925665606983723,5.925665606983723,0.0
516,perov_516.cif,0.295447889473,0.0036749309468000002,0.68,True,-5.706807099239629e-16,YZnO2F,6.0902942401186415,6.0902942401186415,0.0
517,perov_517.cif,0.236281708662,0.0018374654734000001,1.84,True,0.0008341921363950178,PdCdN3,5.968612635141053,5.968612635141053,0.0
518,perov_518.cif,0.310214518905,0.0018374654734000001,0.84,True,2.999999945189763,CoSiO3,6.1417490507273875,6.1417490507273875,0.0
519,perov_519.cif,0.239613768941,0.0018374654734000001,1.0,True,0.4467401894969677,SnIrO2S,6.048922356045369,6.048922356045369,0.0
520,perov_520.cif,0.361210447438,0.0018374654734000001,-0.04,False,-1.0594233935144802e-06,LaGaO3,8.025771317487179,2.545771317487178,5.5
521,perov_521.cif,0.00481301500842,0.0018374654734000001,1.3,True,0.0,KSrO3,4.603053875657835,4.603053875657835,0.0
522,perov_522.cif,0.247525052397,0.0018374654734000001,1.72,True,2.0974251439950145,GaGeN3,5.629919803674757,5.629919803674757,0.0
523,perov_523.cif,0.19527821524,0.0018374654734000001,1.54,True,0.01673731664454613,LiSiON2,5.639069526796644,5.639069526796644,0.0
524,perov_524.cif,0.197323070114,0.0018374654734000001,1.1,False,-0.00011341759486514192,ScInO2S,6.2581943277604495,4.05819432776045,2.2
525,perov_525.cif,0.353147525348,0.0018374654734000001,1.18,True,1.3012324505716606,TaWN3,5.863648834729293,5.863648834729293,0.0
526,perov_526.cif,0.20059884644099998,0.0018374654734000001,1.88,True,0.0,KAsON2,5.515577695733181,5.515577695733181,0.0
527,perov_527.cif,0.23908487161400002,0.0036749309468000002,0.94,True,3.639680527528984,FeMoOFN,6.181219292601583,6.181219292601583,0.0
528,perov_528.cif,0.128245411261,0.0018374654734000001,1.04,True,1.0070017339665007,CdYO3,5.703164095255605,5.703164095255605,0.0
529,perov_529.cif,0.122547033359,0.0018374654734000001,1.38,True,2.000340945862121,VNaO2S,5.148794275606145,5.148794275606145,0.0
530,perov_530.cif,0.07580834186110001,0.0018374654734000001,3.5,True,2.1432006999565627,BHgO2N,6.209411357503813,6.209411357503813,0.0
531,perov_531.cif,0.35578952576,0.0018374654734000001,0.5,True,0.000797188366199464,YMoON2,5.4820604179286265,5.4820604179286265,0.0
532,perov_532.cif,0.209530099553,0.0018374654734000001,1.78,True,1.2252604935610982,HgPdO2N,6.255052734435138,6.255052734435138,0.0
533,perov_533.cif,0.17840334976,0.0018374654734000001,1.16,True,0.0009363882302615424,HgCuO2S,6.071077415402119,6.071077415402119,0.0
534,perov_534.cif,0.181366910471,0.0018374654734000001,2.18,True,0.9849302785834873,LiPtN3,5.778365177806692,5.778365177806692,0.0
535,perov_535.cif,0.129550185268,0.0036749309468000002,1.16,True,2.007141380843347,TlTlOFN,7.030479740635716,7.030479740635716,0.0
536,perov_536.cif,0.14024368054000003,0.0036749309468000002,0.68,True,5.012085910690357,MnYO2F,5.875906290033813,5.875906290033813,0.0
537,perov_537.cif,0.298048080211,0.0018374654734000001,1.3,True,1.2644072529348096,PbFeN3,5.709732649830513,5.709732649830513,0.0
538,perov_538.cif,0.14115135138,0.0018374654734000001,2.28,True,-9.87876503089069e-06,AuNaON2,6.146647539104282,5.446647539104284,0.7
539,perov_539.cif,0.34206381527199997,0.0036749309468000002,1.1,True,1.9676116490667288,ZrHfOFN,5.887449240802566,5.887449240802566,0.0
540,perov_540.cif,0.242505304477,0.0018374654734000001,2.28,True,-1.996197325035086,OsAuO2N,6.503120585909822,6.503120585909822,0.0
541,perov_541.cif,0.29629327613699996,0.0018374654734000001,1.0,True,2.091628140002541,IrTaO3,6.2250380228691995,6.2250380228691995,0.0
542,perov_542.cif,0.0675527383279,0.0018374654734000001,2.46,True,1.2466685201550645,AuSrO2N,5.438335975671257,5.438335975671257,0.0
543,perov_543.cif,0.23347410464499999,0.0036749309468000002,1.16,True,-0.017345768871777273,SbZnOFN,6.576220600015801,6.576220600015801,0.0
544,perov_544.cif,0.26208767318000004,0.0018374654734000001,1.8,True,0.009214251487073,PtTiN3,5.938209351337371,5.938209351337371,0.0
545,perov_545.cif,0.28177381661400003,0.0018374654734000001,1.46,True,-0.0006968080583140932,RbOsON2,5.391103912970023,5.391103912970023,0.0
546,perov_546.cif,0.193161372586,0.0018374654734000001,1.8,True,0.9142849839012896,PtPdO3,6.381459641415352,6.381459641415352,0.0
547,perov_547.cif,0.09779773840730001,0.0018374654734000001,3.32,True,-1.8950145468332635,RhKO2N,5.326987000391625,5.326987000391625,0.0
548,perov_548.cif,0.21162628780099998,0.0018374654734000001,0.82,True,0.0,RhVON2,5.726996937207677,5.726996937207677,0.0
549,perov_549.cif,0.18404631840900001,0.0018374654734000001,0.88,True,0.21906674228876005,InInO3,5.279850958080647,5.279850958080647,0.0
550,perov_550.cif,0.13797819124299998,0.0018374654734000001,1.84,True,-0.3303225746685378,PdInO2N,5.635977019432822,5.635977019432822,0.0
551,perov_551.cif,0.108813021813,0.0018374654734000001,3.94,True,0.0,IrCsO2S,5.285342574828769,5.285342574828769,0.0
552,perov_552.cif,0.21231183270999998,0.0018374654734000001,1.72,True,-0.16371653488072313,IrPbO2N,6.116782586683601,6.116782586683601,0.0
553,perov_553.cif,0.17195146404699999,0.0018374654734000001,2.56,True,3.6102421213095113,PtTlO2N,6.608613916389741,6.608613916389741,0.0
554,perov_554.cif,0.201987381587,0.0018374654734000001,0.9,True,0.9904731183798036,ZnTiO2N,5.75785460247869,5.75785460247869,0.0
555,perov_555.cif,0.24356881703699998,0.0018374654734000001,0.4,True,0.28635606090077204,AgMoO3,5.9397272273763715,5.9397272273763715,0.0
556,perov_556.cif,0.051688000882699994,0.0018374654734000001,1.52,True,0.0,NaLaO2S,4.9710305026261565,4.9710305026261565,0.0
557,perov_557.cif,0.255003257232,0.0018374654734000001,2.04,True,0.36864279326557536,SbBiN3,5.98187534485947,5.98187534485947,0.0
558,perov_558.cif,0.24829236111400002,0.0036749309468000002,1.26,True,4.858033453378876,MnIrO2F,6.513658353877363,6.513658353877363,0.0
559,perov_559.cif,0.0776688867905,0.0036749309468000002,2.6,True,0.0,BCuO2F,6.4707585912188925,6.4707585912188925,0.0
560,perov_560.cif,0.199398433891,0.0036749309468000002,1.0,True,1.1604642529998408,AgIrO2F,6.748278255802872,6.748278255802872,0.0
561,perov_561.cif,0.22276047107299998,0.0018374654734000001,0.28,False,0.0005190433869197256,GeZrO3,7.724956760262918,4.074956760262917,3.7
562,perov_562.cif,0.33815263304399995,0.0018374654734000001,0.46,True,0.3849419955766785,ZrNbON2,5.657245616280855,5.657245616280855,0.0
563,perov_563.cif,0.257059472493,0.0018374654734000001,1.62,True,-0.3067539462185013,TlRhON2,6.231332414413885,6.231332414413885,0.0
564,perov_564.cif,0.261593289098,0.0036749309468000002,1.26,True,5.0792832821641313e-11,PbBOFN,6.246509459838758,6.246509459838758,0.0
565,perov_565.cif,0.256073047706,0.0018374654734000001,1.12,True,0.11630306663024825,TlRuO2N,6.332596904453765,6.332596904453765,0.0
566,perov_566.cif,0.233266755193,0.0018374654734000001,0.94,True,0.07588093686591435,SbRhO2S,5.933597817411733,5.933597817411733,0.0
567,perov_567.cif,0.18594370981400002,0.0018374654734000001,2.68,True,-0.001287388443297132,GaLiON2,5.208540606934012,5.208540606934012,0.0
568,perov_568.cif,0.272908265358,0.0018374654734000001,1.32,True,-1.9092590041950384,NbHfO2N,5.623254593874345,5.623254593874345,0.0
569,perov_569.cif,0.308250684825,0.0036749309468000002,0.88,True,2.230587289526476,BiCoOFN,6.318559490358718,6.318559490358718,0.0
570,perov_570.cif,0.277998924431,0.0036749309468000002,0.6,True,3.0008833192542546,BaMnOFN,5.634969504965067,5.634969504965067,0.0
571,perov_571.cif,0.145619631124,0.0036749309468000002,1.16,True,-3.329602565973772e-08,ZnCuO2F,6.5183209630589465,6.5183209630589465,0.0
572,perov_572.cif,0.254210065264,0.0018374654734000001,1.62,True,0.9864352749847604,ScBiN3,5.5518574199311415,5.5518574199311415,0.0
573,perov_573.cif,0.46429910481200004,0.0018374654734000001,1.22,True,-1.3825822005168358,TaSiO2N,6.04091930647945,6.04091930647945,0.0
574,perov_574.cif,0.268134368625,0.0018374654734000001,1.14,True,-3.2715220490520958,RuMoO2N,5.9139860641834066,5.9139860641834066,0.0
575,perov_575.cif,0.322437890055,0.0018374654734000001,0.46,True,0.00945295697535542,BiHfO3,5.6937215713005696,5.6937215713005696,0.0
576,perov_576.cif,0.133201702644,0.0018374654734000001,2.2,True,1.9858377726739764,BTiO2N,5.715841141779827,5.715841141779827,0.0
577,perov_577.cif,0.356743944695,0.0018374654734000001,0.1,False,1.1053809927207277e-05,LaNbON2,6.199870045245988,4.699870045245988,1.5
578,perov_578.cif,0.298102968686,0.0018374654734000001,1.28,True,1.767926430140676e-05,TeTeON2,6.543373297314201,6.543373297314201,0.0
579,perov_579.cif,0.21163796299899998,0.0018374654734000001,2.6,True,0.08342801329307292,OsRbON2,5.391103912970023,5.391103912970023,0.0
580,perov_580.cif,0.32761030287500004,0.0018374654734000001,1.62,True,-1.7889574487637268,WIrO2N,6.269366505989791,6.269366505989791,0.0
581,perov_581.cif,0.23708047877500002,0.0018374654734000001,1.9,True,2.51656106409304,FeAgN3,5.862764470178338,5.862764470178338,0.0
582,perov_582.cif,0.17165667380999997,0.0018374654734000001,3.54,True,-0.4586286449865257,HgCsON2,5.3900858590945635,5.3900858590945635,0.0
583,perov_583.cif,0.18099092235599998,0.0018374654734000001,0.88,True,0.05977234767037842,SrTlO3,5.422473693263079,5.422473693263079,0.0
584,perov_584.cif,0.24407291952399998,0.0018374654734000001,1.78,False,-0.00010239461570780467,AlCdN3,5.891166150900885,5.291166150900885,0.6
585,perov_585.cif,0.10297905258,0.0018374654734000001,1.86,True,1.393003547178751e-06,CsHgO2S,5.261371778916819,5.261371778916819,0.0
586,perov_586.cif,0.155517347221,0.0036749309468000002,1.28,True,1.950770410341249,AuGaOFN,6.37413388897686,6.37413388897686,0.0
587,perov_587.cif,0.29840598479200003,0.0018374654734000001,1.04,True,0.6557139880358135,SnMnN3,5.724307109023474,5.724307109023474,0.0
588,perov_588.cif,0.226761190674,0.0036749309468000002,0.2,True,6.777351291731295e-06,CuTaO2F,6.412398598532596,6.412398598532596,0.0
589,perov_589.cif,0.273598844519,0.0018374654734000001,1.1,True,0.0003968935330149748,SrSbON2,5.21587417833875,5.21587417833875,0.0
590,perov_590.cif,0.286067640812,0.0036749309468000002,1.6,True,0.8942665078800511,ScSbOFN,6.209457577949129,6.209457577949129,0.0
591,perov_591.cif,0.225897826981,0.0018374654734000001,0.4,True,0.9997910002488908,SrVO2S,4.796700104577622,4.796700104577622,0.0
592,perov_592.cif,0.0832224428955,0.0036749309468000002,0.96,True,0.0,BaNaO2F,5.3802699581561955,5.3802699581561955,0.0
593,perov_593.cif,0.07770993100889999,0.0018374654734000001,1.68,True,2.8105511943127444,NaBeO2S,5.476262473862431,5.476262473862431,0.0
594,perov_594.cif,0.312675320675,0.0018374654734000001,2.14,True,1.96806062265134,BaBN3,5.358448533188288,5.358448533188288,0.0
595,perov_595.cif,0.106394567776,0.0018374654734000001,1.66,True,-0.7828156326326785,KAuO2S,5.476136982683927,5.476136982683927,0.0
596,perov_596.cif,0.263114360655,0.0036749309468000002,1.58,True,1.0022027897864658,ZrYOFN,5.809442220424371,5.809442220424371,0.0
597,perov_597.cif,0.285793934895,0.0018374654734000001,1.62,True,1.6550487848421958,NiOsN3,6.073974350681308,6.073974350681308,0.0
598,perov_598.cif,0.193293669705,0.0018374654734000001,2.08,True,0.2984100840144812,TaNaO3,5.490384111205958,5.490384111205958,0.0
599,perov_599.cif,0.09471352651460001,0.0036749309468000002,1.2,True,0.0,GaTlO2F,6.355542115260267,6.355542115260267,0.0
600,perov_600.cif,0.232771554823,0.0018374654734000001,1.8,True,-0.02027563163973621,MgNiN3,5.759933048457509,5.759933048457509,0.0
601,perov_601.cif,0.325012773817,0.0036749309468000002,1.68,True,3.898368137370653,WReOFN,6.3164844763196255,6.3164844763196255,0.0