,id,fermi level,fermi width,e_form,gap is direct,mu_b,formula,vbm,cbm,gap gllbsc
1787,perov_1787.cif,0.125425906704,0.0018374654734000001,1.68,True,2.5253910080544983,NaTiN3,5.193419897664472,5.193419897664472,0.0
1788,perov_1788.cif,0.28651868888300003,0.0018374654734000001,1.5,True,-2.657550738469257,IrVO2N,6.022733190979269,6.022733190979269,0.0
1789,perov_1789.cif,0.16315381157,0.0018374654734000001,4.58,True,3.579663563231616,IrKON2,5.523878075957977,5.523878075957977,0.0
1790,perov_1790.cif,0.141831293972,0.0018374654734000001,2.26,True,-0.002806265949796107,KCuON2,5.333243780634296,5.333243780634296,0.0
1791,perov_1791.cif,0.25991005356400004,0.0018374654734000001,0.94,True,3.7803379793154654,CrMoON2,5.653198941454253,5.653198941454253,0.0
1792,perov_1792.cif,0.279345312402,0.0018374654734000001,1.6,True,-0.187769044106737,MgIrON2,6.029582815810965,6.029582815810965,0.0
1793,perov_1793.cif,0.131774153548,0.0018374654734000001,1.18,True,0.7345542168067248,NaSiO2S,5.4446056557711655,5.4446056557711655,0.0
1794,perov_1794.cif,0.117997478604,0.0018374654734000001,1.3,True,1.0065035291661886,NaPdO3,5.581076300451636,5.581076300451636,0.0
1795,perov_1795.cif,0.20316756734299998,0.0018374654734000001,1.62,True,1.6447542572092466,OsPbO2S,5.82542693482647,5.82542693482647,0.0
1796,perov_1796.cif,0.262056150339,0.0036749309468000002,0.52,True,2.0076469351578763,SnCrOFN,6.193816039957674,6.193816039957674,0.0
1797,perov_1797.cif,0.204063883508,0.0018374654734000001,3.66,True,-4.02060484656528,OsCsO2N,5.357663921280834,5.357663921280834,0.0
1798,perov_1798.cif,0.197798513649,0.0018374654734000001,2.6,True,0.06996807835655619,VCdN3,5.720867534894737,5.720867534894737,0.0
1799,perov_1799.cif,0.106787501293,0.0018374654734000001,2.86,True,2.270754018489768,HgRbO2N,5.500499692463119,5.500499692463119,0.0
1800,perov_1800.cif,0.168982153489,0.0018374654734000001,1.38,True,0.9707091382979184,BeRuO2S,6.000090296032169,6.000090296032169,0.0
1801,perov_1801.cif,0.301029735202,0.0018374654734000001,0.4,True,-0.0002808406922814061,BiTaO2S,5.685925998839423,5.685925998839423,0.0
1802,perov_1802.cif,0.25737697168699997,0.0036749309468000002,1.34,True,4.278530295392552,WNbO2F,6.357855746057293,6.357855746057293,0.0
1803,perov_1803.cif,0.188208137759,0.0018374654734000001,0.9,True,-0.00016009466814352632,HgAsO2S,6.2786365219327855,6.2786365219327855,0.0
1804,perov_1804.cif,0.243717477631,0.0018374654734000001,0.52,True,-0.01331942637529724,InTaON2,5.505564686973113,5.505564686973113,0.0
1805,perov_1805.cif,0.209600507712,0.0036749309468000002,2.08,True,3.908849452468533,WBiOFN,6.347678509993735,6.347678509993735,0.0
1806,perov_1806.cif,0.250748807483,0.0018374654734000001,0.94,True,6.06580447629811,RuCrO3,5.899674843367505,5.899674843367505,0.0
1807,perov_1807.cif,0.23473834561,0.0018374654734000001,2.22,True,0.4392216189327094,SiSbN3,6.160137197173317,6.160137197173317,0.0
1808,perov_1808.cif,0.41052974536700004,0.0036749309468000002,0.86,True,0.1309877348242523,LaTaO2F,5.926063438869604,5.926063438869604,0.0
1809,perov_1809.cif,0.319475888008,0.0018374654734000001,1.18,True,0.1596080440842691,InIrO2N,5.845281928698197,5.845281928698197,0.0
1810,perov_1810.cif,0.274647673169,0.0018374654734000001,1.58,True,0.7727678485764216,NbLaN3,5.4117039885812295,5.4117039885812295,0.0
1811,perov_1811.cif,0.134158405548,0.0018374654734000001,0.98,True,1.9999881180225465,TlLaO3,5.888339518004567,5.888339518004567,0.0
1812,perov_1812.cif,0.2561422213,0.0018374654734000001,1.4,True,2.6778308616116746,CoIrO3,6.28461862632758,6.28461862632758,0.0
1813,perov_1813.cif,0.19264543940099998,0.0018374654734000001,1.64,True,1.6882533682085334,AuBeO2S,6.305948884271787,6.305948884271787,0.0
1814,perov_1814.cif,0.297773341238,0.0018374654734000001,1.64,True,0.012135320689306893,AuOsN3,6.4123553435300895,6.4123553435300895,0.0
1815,perov_1815.cif,0.12237209496200001,0.0036749309468000002,2.02,True,2.743764898248803e-15,BAsO2F,6.691982070985715,6.691982070985715,0.0
1816,perov_1816.cif,0.159331733538,0.0036749309468000002,1.06,True,-1.260796061080529e-15,AlScO2F,5.757824670914259,5.757824670914259,0.0
1817,perov_1817.cif,0.19027605049899998,0.0018374654734000001,1.28,True,4.9930419724678154,RuGaO3,5.7246571798787995,5.7246571798787995,0.0
1818,perov_1818.cif,0.152291571743,0.0018374654734000001,0.7,True,-0.5818846736737073,CuNbON2,5.897125368436191,5.897125368436191,0.0
1819,perov_1819.cif,0.154493541426,0.0036749309468000002,0.72,True,-1.1710818320463673e-14,CdBiO2F,6.4011388238538895,6.4011388238538895,0.0
1820,perov_1820.cif,0.263804454167,0.0018374654734000001,1.46,True,-0.11940684304778135,RuNiO2N,6.058399538085965,6.058399538085965,0.0
1821,perov_1821.cif,0.20723041033700002,0.0036749309468000002,1.46,True,1.1182456764286883e-11,AsRhOFN,6.64821243554854,6.64821243554854,0.0
1822,perov_1822.cif,0.21048920609400001,0.0018374654734000001,0.18,False,-6.36852053998973e-05,MgTaO2N,6.799541309516248,4.719541309516247,2.1
1823,perov_1823.cif,0.100526378672,0.0018374654734000001,2.42,True,0.0,LiLaON2,5.148579786384062,5.148579786384062,0.0
1824,perov_1824.cif,0.24140621136799997,0.0036749309468000002,0.48,True,8.339500601171003e-15,CdNbOFN,6.3219166667192175,6.3219166667192175,0.0
1825,perov_1825.cif,0.254930848852,0.0018374654734000001,1.4,True,0.0,VBeON2,5.87858058168178,5.87858058168178,0.0
1826,perov_1826.cif,0.202297760739,0.0018374654734000001,2.3,True,3.932093151763965,HgZnN3,6.167749820389668,6.167749820389668,0.0
1827,perov_1827.cif,0.25625970503600004,0.0018374654734000001,2.62,True,0.2726742574821018,YBaN3,5.050167025976742,5.050167025976742,0.0
1828,perov_1828.cif,0.20545460468199997,0.0018374654734000001,1.68,True,0.01497380395922221,IrAuO2S,6.415337095974023,6.415337095974023,0.0
1829,perov_1829.cif,0.08632683398150001,0.0036749309468000002,1.06,True,1.995767748851824,NaGaOFN,5.535476240005994,5.535476240005994,0.0
1830,perov_1830.cif,0.133711412635,0.0018374654734000001,-0.06,False,8.775199117142788e-07,LiNbO3,7.3833464252663825,3.663346425266382,3.7
1831,perov_1831.cif,0.29496382356199996,0.0036749309468000002,0.72,True,-8.24276795475059e-15,InReOFN,5.889212654429863,5.889212654429863,0.0
1832,perov_1832.cif,0.194869573946,0.0018374654734000001,1.86,True,-0.7290457760927265,AuPtO2N,6.674689603959682,6.674689603959682,0.0
1833,perov_1833.cif,0.299338801916,0.0018374654734000001,1.44,True,2.313228664267005,BiAlN3,5.5079503576709765,5.5079503576709765,0.0
1834,perov_1834.cif,0.16936865698800002,0.0036749309468000002,1.12,True,-5.830874754740176e-11,GaTeOFN,6.311033534598259,6.311033534598259,0.0
1835,perov_1835.cif,0.254416443008,0.0036749309468000002,1.38,True,1.5391890016332646,TiIrO2F,6.416234184994942,6.416234184994942,0.0
1836,perov_1836.cif,0.202938850962,0.0018374654734000001,3.46,True,0.0,YKN3,4.948138604278609,4.948138604278609,0.0
1837,perov_1837.cif,0.121875545645,0.0018374654734000001,2.44,True,4.474114978249783,NaCuN3,5.471989071050697,5.471989071050697,0.0
1838,perov_1838.cif,0.155933411772,0.0018374654734000001,1.28,True,1.0327524074855603,AsZnO2S,6.081395431609674,6.081395431609674,0.0
1839,perov_1839.cif,0.08294709353339999,0.0018374654734000001,3.4,True,5.000000629120897,AsNaN3,5.659066435548053,5.659066435548053,0.0
1840,perov_1840.cif,0.34836227281599996,0.0018374654734000001,1.74,True,0.006028080908649258,HfZnN3,5.66426449249238,5.66426449249238,0.0
1841,perov_1841.cif,0.16349388942600002,0.0018374654734000001,1.44,True,1.0866982037621966,RhZnO3,6.059582170020341,6.059582170020341,0.0
1842,perov_1842.cif,0.29172574229200005,0.0018374654734000001,0.94,True,0.0008201424870293298,TaWO2S,5.763992062196782,5.763992062196782,0.0
1843,perov_1843.cif,0.144842532004,0.0036749309468000002,0.8,True,-5.9762946990824316e-15,ZnAsO2F,6.741170513904777,6.741170513904777,0.0
1844,perov_1844.cif,0.20109610937300001,0.0018374654734000001,1.02,True,1.9998765675373,PbScO2N,5.568831614642245,5.568831614642245,0.0
1845,perov_1845.cif,0.277634508909,0.0018374654734000001,1.34,True,0.0008799094608029633,TiRhN3,5.6386891916833095,5.6386891916833095,0.0
1846,perov_1846.cif,-0.0312220136683,0.0036749309468000002,3.02,True,0.0,ZnKOFN,5.7225698013152275,5.7225698013152275,0.0
1847,perov_1847.cif,0.234072521768,0.0018374654734000001,1.28,True,2.530197837134463,TaSnO2S,5.737550616277468,5.737550616277468,0.0
1848,perov_1848.cif,0.049004185184500004,0.0036749309468000002,2.92,True,0.0,AlCsO2F,5.291733518478812,5.291733518478812,0.0
1849,perov_1849.cif,0.216626504243,0.0036749309468000002,1.24,True,5.893112114019099,CoFeOFN,6.303110504713888,6.303110504713888,0.0
1850,perov_1850.cif,0.191676943008,0.0018374654734000001,1.18,True,-0.8596404693715309,VRhO2N,5.7673865982249035,5.7673865982249035,0.0
1851,perov_1851.cif,0.26286690092799997,0.0018374654734000001,1.5,True,2.3583737884232123,VRuON2,5.779306966051243,5.779306966051243,0.0
1852,perov_1852.cif,0.21231555942699998,0.0036749309468000002,0.36,True,3.2256343695513116e-15,KTaOFN,6.37957835030237,4.879578350302369,1.5
1853,perov_1853.cif,0.132727925281,0.0018374654734000001,1.12,True,-0.3783344904437518,NaVON2,5.274754262289601,5.274754262289601,0.0
1854,perov_1854.cif,0.24964900040600002,0.0018374654734000001,1.82,True,9.54656769138751e-05,PdInN3,5.557314658269815,5.557314658269815,0.0
1855,perov_1855.cif,0.0254661340111,0.0018374654734000001,1.82,True,1.6682252791916101,NaKO2N,4.906331833866335,4.906331833866335,0.0
1856,perov_1856.cif,0.279691660812,0.0018374654734000001,2.0,True,1.980467280670355,BaBeN3,5.502839186956357,5.502839186956357,0.0
1857,perov_1857.cif,0.261370362596,0.0018374654734000001,3.06,True,0.6296795636549124,SiCsN3,5.254493510791564,5.254493510791564,0.0
1858,perov_1858.cif,0.18018027426600003,0.0018374654734000001,1.46,True,4.998743285865018,RuScO3,5.7738936704554975,5.7738936704554975,0.0
1859,perov_1859.cif,0.24013718761999997,0.0018374654734000001,1.64,True,0.00760537583307652,IrBiON2,6.141145334191675,6.141145334191675,0.0
1860,perov_1860.cif,0.203821433819,0.0036749309468000002,2.08,True,1.7520323627983103,NbAgOFN,6.3247682315539455,6.3247682315539455,0.0
1861,perov_1861.cif,0.18462826200399998,0.0018374654734000001,1.72,True,-3.2698152161484995,ReSrO3,5.092275121916832,5.092275121916832,0.0
1862,perov_1862.cif,0.226413860476,0.0018374654734000001,0.68,True,0.7257749827409725,AlHfO3,5.419121247095119,5.419121247095119,0.0
1863,perov_1863.cif,0.280170747118,0.0036749309468000002,0.22,True,1.9485123642150877,TiTiOFN,5.8382630847853925,5.8382630847853925,0.0
1864,perov_1864.cif,0.203189311924,0.0036749309468000002,1.14,True,0.2034698363597549,InCuOFN,6.021212643185781,6.021212643185781,0.0
1865,perov_1865.cif,0.200317374978,0.0018374654734000001,2.8,True,2.742718945010857,SnBaN3,5.36094431840373,5.36094431840373,0.0
1866,perov_1866.cif,0.132706464137,0.0018374654734000001,1.58,True,-1.440683260385483,RbNiO2S,5.1524024040790115,5.1524024040790115,0.0
1867,perov_1867.cif,0.19924278666099998,0.0018374654734000001,1.28,True,1.5761561946999658,AuRuO2S,6.199458152874187,6.199458152874187,0.0
1868,perov_1868.cif,0.317673748754,0.0018374654734000001,1.04,True,0.00025668367142372967,SnBO3,6.015367087332757,6.015367087332757,0.0
1869,perov_1869.cif,0.139685337067,0.0018374654734000001,0.9,True,-0.0003861568186746423,PbPbO2S,5.564881335428803,5.564881335428803,0.0
1870,perov_1870.cif,0.23497547352200002,0.0036749309468000002,1.36,True,-0.15171984881959186,AsOsO2F,6.869499276485077,6.869499276485077,0.0
1871,perov_1871.cif,0.252562913052,0.0036749309468000002,1.06,True,2.98949252994637,CoGeOFN,6.46251078334417,6.46251078334417,0.0
1872,perov_1872.cif,0.174448599799,0.0018374654734000001,2.02,True,0.5168209382328862,PbCsO2N,5.118039294046033,5.118039294046033,0.0
1873,perov_1873.cif,0.2311384973,0.0018374654734000001,1.02,True,-2.452973561489613,CrAlO2N,5.475634701067788,5.475634701067788,0.0
1874,perov_1874.cif,0.33238740943000006,0.0018374654734000001,0.06,True,0.07815527106602005,CaWO2N,5.250491311099615,5.250491311099615,0.0
1875,perov_1875.cif,0.21835460794,0.0018374654734000001,1.88,True,-0.0029765251262878737,SbSrON2,5.21587417833875,5.21587417833875,0.0
1876,perov_1876.cif,0.109690904667,0.0018374654734000001,3.12,True,0.232700857579065,BeMgON2,5.9267721183113755,5.9267721183113755,0.0
1877,perov_1877.cif,0.25018786458000003,0.0018374654734000001,1.96,True,0.22026497541873974,CuAsN3,6.194858961546784,6.194858961546784,0.0
1878,perov_1878.cif,0.201920463399,0.0018374654734000001,0.82,True,0.0007155832529992523,GaMoN3,5.4470776154768,5.4470776154768,0.0
1879,perov_1879.cif,0.0222277923434,0.0018374654734000001,1.78,True,0.0,TlSrO2S,5.219111023036525,5.219111023036525,0.0
1880,perov_1880.cif,0.26048646012800003,0.0018374654734000001,1.48,True,-0.0014002089426169055,RuBO2S,5.8426521207416595,5.8426521207416595,0.0
1881,perov_1881.cif,0.167881990136,0.0036749309468000002,2.1,True,1.1044740147463763,TiHgOFN,6.342404592348987,6.342404592348987,0.0
1882,perov_1882.cif,0.23699253939800002,0.0036749309468000002,1.8,True,1.0068308604506182,MoLiOFN,5.8221346309556425,5.8221346309556425,0.0
1883,perov_1883.cif,0.25708455525400004,0.0018374654734000001,1.64,True,3.7903013866708117,HgCoON2,6.1687980282219295,6.1687980282219295,0.0
1884,perov_1884.cif,0.263192520132,0.0018374654734000001,0.92,True,0.8858621595094363,HgCrO2N,6.034865025838988,6.034865025838988,0.0
1885,perov_1885.cif,0.25157412535100004,0.0018374654734000001,1.7,True,-0.006586720032713231,ZrAgO2N,5.8173037816989215,5.8173037816989215,0.0
1886,perov_1886.cif,0.20045833820300002,0.0018374654734000001,1.84,True,-0.4182291365276904,BePtO2N,6.460038818582544,6.460038818582544,0.0
1887,perov_1887.cif,0.140384086628,0.0018374654734000001,2.06,True,2.999999967103846,SbNaO2N,5.638222266676335,5.638222266676335,0.0
1888,perov_1888.cif,0.134593307705,0.0036749309468000002,2.0,True,0.3251269192917654,SiLaOFN,6.062877625844593,6.062877625844593,0.0
1889,perov_1889.cif,0.206166766726,0.0018374654734000001,0.9,True,0.9947084516441967,AgGeO3,6.139106197205392,6.139106197205392,0.0
1890,perov_1890.cif,0.24174302042100002,0.0018374654734000001,2.0,True,1.3415737099778078,SrLaN3,4.711161955651272,4.711161955651272,0.0
1891,perov_1891.cif,0.151038138916,0.0018374654734000001,1.74,True,2.8574112590717963e-05,SiPbO3,6.0198864093370315,6.0198864093370315,0.0
1892,perov_1892.cif,0.234430942687,0.0018374654734000001,1.18,True,-0.5518213754000092,WInO2N,5.623254593874345,5.623254593874345,0.0
1893,perov_1893.cif,0.06391939658969999,0.0036749309468000002,2.58,True,0.0,SnRbOFN,5.645376172804115,5.645376172804115,0.0
1894,perov_1894.cif,0.179909719606,0.0018374654734000001,1.38,True,-0.00032288090706300945,InCdO3,5.670613790631203,5.670613790631203,0.0
1895,perov_1895.cif,0.20746279317299998,0.0018374654734000001,2.0,True,3.3868306944760675,PtZnO3,6.381459641415352,6.381459641415352,0.0
1896,perov_1896.cif,0.260338230334,0.0018374654734000001,0.86,True,-0.08411397249550885,KReON2,5.216325784078735,5.216325784078735,0.0
1897,perov_1897.cif,0.16428176579099998,0.0018374654734000001,2.2,True,0.16482728892809995,CoNaN3,5.42729351769148,5.42729351769148,0.0
1898,perov_1898.cif,0.24022653991300003,0.0018374654734000001,0.94,True,-2.996399793823687,CrOsO2S,5.773596476103827,5.773596476103827,0.0
1899,perov_1899.cif,0.194224029153,0.0018374654734000001,1.78,True,-0.3155905301792805,CuBaO2N,5.481601173479537,5.481601173479537,0.0
1900,perov_1900.cif,0.24670067291499997,0.0036749309468000002,1.34,True,2.250240173174504,IrHfO2F,6.40128647640428,6.40128647640428,0.0
1901,perov_1901.cif,0.19672989914500003,0.0018374654734000001,0.7,True,1.9992938713016355,SrScO2N,4.8750622448541945,4.8750622448541945,0.0
1902,perov_1902.cif,0.212569439714,0.0018374654734000001,2.38,True,0.0,CsSnN3,5.148766071666398,5.148766071666398,0.0
1903,perov_1903.cif,0.24419837957499999,0.0018374654734000001,1.86,True,0.0010894482054126797,TiAgN3,5.674937195447541,5.674937195447541,0.0
1904,perov_1904.cif,0.0679584304757,0.0018374654734000001,3.88,True,6.616867726080392,ZnKN3,5.288782680051259,5.288782680051259,0.0
1905,perov_1905.cif,0.229748041807,0.0018374654734000001,1.34,True,-0.030557320978125694,OsScO2N,5.829562164590232,5.829562164590232,0.0
1906,perov_1906.cif,0.259146624967,0.0036749309468000002,0.78,True,2.315407219793613e-15,SnSbOFN,6.531276383439459,6.531276383439459,0.0
1907,perov_1907.cif,0.233488673747,0.0018374654734000001,1.22,False,0.00012021871310639099,BeBeO2S,7.703156400894878,4.503156400894877,3.2
1908,perov_1908.cif,0.289488455676,0.0036749309468000002,1.42,True,3.4139192674452805e-11,TeOsOFN,6.869612877917612,6.869612877917612,0.0
1909,perov_1909.cif,0.178331239996,0.0036749309468000002,1.72,True,3.188550781958845,NbPbO2F,6.20311817453552,6.20311817453552,0.0
1910,perov_1910.cif,0.287350725301,0.0018374654734000001,1.36,True,0.005730225217213558,AsIrO3,6.553003667949445,6.553003667949445,0.0
1911,perov_1911.cif,0.20171030649099997,0.0018374654734000001,1.44,True,4.343796338380853,CrSnN3,5.724307109023474,5.724307109023474,0.0
1912,perov_1912.cif,0.188890952744,0.0036749309468000002,1.26,True,0.0,CaLaOFN,5.195674650896513,5.195674650896513,0.0
1913,perov_1913.cif,0.28717528279300003,0.0018374654734000001,0.76,True,4.9603650145599785,MoVO3,5.695743291034661,5.695743291034661,0.0
1914,perov_1914.cif,0.04598312375580001,0.0018374654734000001,2.92,True,0.1841642728820433,CuRbO3,5.3724917839057165,5.3724917839057165,0.0
1915,perov_1915.cif,0.0462170895041,0.0036749309468000002,2.36,True,0.0,FeSrO2F,5.446523003583429,5.446523003583429,0.0
1916,perov_1916.cif,0.12412180819299999,0.0018374654734000001,1.66,True,-0.8145405877896233,CuCaO2N,5.269446646583577,5.269446646583577,0.0
1917,perov_1917.cif,0.312134189443,0.0018374654734000001,0.98,True,-4.225720839341927,FeSiO2N,6.029085877072243,6.029085877072243,0.0
1918,perov_1918.cif,0.31700400686700003,0.0018374654734000001,1.68,True,0.3588102017867492,PtMnON2,6.070890317915981,6.070890317915981,0.0
1919,perov_1919.cif,0.213305990139,0.0018374654734000001,1.04,True,-0.05390580357555321,GeRhO3,6.099893367727063,6.099893367727063,0.0
1920,perov_1920.cif,0.188891510108,0.0036749309468000002,2.26,True,1.9811478089324692,LaKOFN,5.295664767842808,5.295664767842808,0.0
1921,perov_1921.cif,0.0981380658729,0.0036749309468000002,0.46,True,0.9978764817524172,KScO2F,5.441523423137119,5.441523423137119,0.0
1922,perov_1922.cif,0.249419356526,0.0018374654734000001,1.88,True,-0.1066983334113146,MoCaN3,5.053800616866841,5.053800616866841,0.0
1923,perov_1923.cif,0.36327363966,0.0018374654734000001,0.98,True,0.003988219394397419,ZrTiN3,5.453869503933589,5.453869503933589,0.0
1924,perov_1924.cif,0.15403124318800002,0.0018374654734000001,2.0,True,-1.3647149128597695,RhInO2N,5.597458759905448,5.597458759905448,0.0
1925,perov_1925.cif,0.04954934377180001,0.0018374654734000001,3.26,True,0.0,RbCaN3,4.562977782482055,4.562977782482055,0.0
1926,perov_1926.cif,0.110002176579,0.0036749309468000002,1.78,True,3.0056733513788605,CoAgO2F,6.4621706357345365,6.4621706357345365,0.0
1927,perov_1927.cif,0.33821721391000004,0.0018374654734000001,0.98,True,2.343317202004229,YCoN3,5.551015937601599,5.551015937601599,0.0
1928,perov_1928.cif,0.364732583658,0.0018374654734000001,1.78,True,-0.049980843521816885,ZrPdO3,5.860966845343686,5.860966845343686,0.0
1929,perov_1929.cif,0.225949430354,0.0036749309468000002,0.5,True,0.8829505879027548,InVOFN,5.7635340366141525,5.7635340366141525,0.0
1930,perov_1930.cif,0.20891648058200002,0.0036749309468000002,0.46,True,0.0,HgNbOFN,6.532841510957664,6.532841510957664,0.0
1931,perov_1931.cif,0.212219250961,0.0036749309468000002,0.36,False,3.280458776269036e-15,SnInO2F,7.614148761268438,4.4141487612684385,3.2
1932,perov_1932.cif,0.0654402247999,0.0018374654734000001,3.32,True,0.0,LiKN3,4.890992747414947,4.890992747414947,0.0
1933,perov_1933.cif,0.32998483584000005,0.0018374654734000001,1.14,True,1.3299589974735753,NbMoN3,5.695679800777102,5.695679800777102,0.0