,id,fermi level,fermi width,e_form,gap is direct,mu_b,formula,vbm,cbm,gap gllbsc
4736,perov_4736.cif,0.320680964275,0.0018374654734000001,0.68,True,0.7665572645528761,TiReON2,5.599708929150702,5.599708929150702,0.0
4737,perov_4737.cif,0.154285817544,0.0036749309468000002,1.68,True,2.3783407883034045,CsAuOFN,5.908537672536316,5.908537672536316,0.0
4738,perov_4738.cif,0.224954658847,0.0018374654734000001,2.06,True,0.014187368537214697,TeTlO2N,6.5895204547660695,6.5895204547660695,0.0
4739,perov_4739.cif,0.287266853775,0.0018374654734000001,0.58,True,-1.7702996931524728,NbGaO3,5.591379626287641,5.591379626287641,0.0
4740,perov_4740.cif,0.200787808327,0.0018374654734000001,1.9,True,4.725120681061976,TlGaN3,5.832639183070287,5.832639183070287,0.0
4741,perov_4741.cif,0.308232629234,0.0018374654734000001,1.34,True,2.915236553828453,VOsON2,5.876179199923612,5.876179199923612,0.0
4742,perov_4742.cif,0.246401361785,0.0018374654734000001,0.96,True,5.7755522141735565,MnCoO2S,5.627018545613702,5.627018545613702,0.0
4743,perov_4743.cif,0.210677045901,0.0018374654734000001,0.02,True,0.9995490391184899,MgVO3,5.65123984216575,5.65123984216575,0.0
4744,perov_4744.cif,0.279516394504,0.0036749309468000002,1.96,True,2.0336547030171492,HfSnO2F,6.129890311380295,6.129890311380295,0.0
4745,perov_4745.cif,0.19987816942699999,0.0018374654734000001,1.18,True,2.5601572829895543,AgCoO2S,5.8297019636838305,5.8297019636838305,0.0
4746,perov_4746.cif,0.127350049728,0.0036749309468000002,1.84,True,0.0,CaLiOFN,5.192229240271894,5.192229240271894,0.0
4747,perov_4747.cif,0.23714448710900002,0.0018374654734000001,1.84,True,2.1487382140164897,AsAlN3,5.79531206727205,5.79531206727205,0.0
4748,perov_4748.cif,0.255634949998,0.0018374654734000001,0.88,True,-1.605644455716218,CoReO2S,5.712137237253858,5.712137237253858,0.0
4749,perov_4749.cif,0.190236775104,0.0036749309468000002,1.44,True,0.0,IrInO2F,6.280420558442646,6.280420558442646,0.0
4750,perov_4750.cif,0.285957127359,0.0018374654734000001,2.06,True,0.0018747175267570528,CuBN3,5.938376210695043,5.938376210695043,0.0
4751,perov_4751.cif,0.277179581587,0.0018374654734000001,1.38,True,3.525781073363432,OsNbO3,6.086263569270805,6.086263569270805,0.0
4752,perov_4752.cif,0.26731168565499996,0.0018374654734000001,1.66,True,-2.7807429988254313,WHfO2N,5.7314734340134725,5.7314734340134725,0.0
4753,perov_4753.cif,0.242802089247,0.0018374654734000001,1.2,True,0.7131066283651178,AuOsO2S,6.303372923900362,6.303372923900362,0.0
4754,perov_4754.cif,0.117095643959,0.0036749309468000002,1.36,True,1.2629709362711912,PdPbO2F,6.336800854478657,6.336800854478657,0.0
4755,perov_4755.cif,0.157002153229,0.0018374654734000001,2.92,True,4.999999923374847,BiNaN3,5.378460492884705,5.378460492884705,0.0
4756,perov_4756.cif,0.25454614770399997,0.0036749309468000002,1.32,True,7.998795343380985e-15,TeRuOFN,6.756363311714639,6.756363311714639,0.0
4757,perov_4757.cif,0.282870031313,0.0036749309468000002,0.86,True,2.418371528546171,TiTaOFN,6.043334228042117,6.043334228042117,0.0
4758,perov_4758.cif,0.350969116285,0.0018374654734000001,2.58,True,-0.00011580634545728646,WLiN3,5.5121938337308585,5.5121938337308585,0.0
4759,perov_4759.cif,0.206341533993,0.0018374654734000001,1.6,True,2.015450217124812,RePbO2S,5.598798817535533,5.598798817535533,0.0
4760,perov_4760.cif,0.478704070123,0.0018374654734000001,0.42,True,0.5388990366143211,LaReO2N,5.4910466807165905,5.4910466807165905,0.0
4761,perov_4761.cif,0.125412004835,0.0036749309468000002,1.34,True,0.8674963987155451,BeZnO2F,6.636198294478706,6.636198294478706,0.0
4762,perov_4762.cif,0.25590689224,0.0018374654734000001,1.34,True,1.672001202019732,NiCrON2,5.7912442613007045,5.7912442613007045,0.0
4763,perov_4763.cif,0.256025790524,0.0018374654734000001,1.36,True,-4.071595301935603,FeBeO3,6.106908435944558,6.106908435944558,0.0
4764,perov_4764.cif,0.18245111306200001,0.0018374654734000001,0.34,True,0.9934558376354126,SrScO3,4.909443634204744,4.909443634204744,0.0
4765,perov_4765.cif,0.237701647425,0.0018374654734000001,1.58,True,-3.8931445741848623,NiCoO2N,6.003563368897388,6.003563368897388,0.0
4766,perov_4766.cif,0.20203328242600002,0.0018374654734000001,3.5,True,-4.274991744032075,ReCsO2N,5.149233311620527,5.149233311620527,0.0
4767,perov_4767.cif,0.106339332877,0.0036749309468000002,1.8,True,-2.0840913959347267,PdAgOFN,6.4610725777590945,6.4610725777590945,0.0
4768,perov_4768.cif,-0.0200005506395,0.0018374654734000001,2.44,True,0.0,RbNaO2S,4.7237642049205695,4.7237642049205695,0.0
4769,perov_4769.cif,0.20414786450800002,0.0018374654734000001,1.42,True,-0.1873309742909492,AuAlO2N,5.978070628720412,5.978070628720412,0.0
4770,perov_4770.cif,0.141786246067,0.0018374654734000001,0.6,True,1.002811804543482,NaMnO2N,5.346904565351731,5.346904565351731,0.0
4771,perov_4771.cif,0.149504999559,0.0018374654734000001,1.1,True,1.0125431847189788,SbSrO3,5.289703537233648,5.289703537233648,0.0
4772,perov_4772.cif,0.29310766596500004,0.0018374654734000001,0.34,True,0.5986014513138149,CdMoO3,5.937049260900861,5.937049260900861,0.0
4773,perov_4773.cif,0.122911056226,0.0036749309468000002,2.84,True,0.0,ScCsO2F,5.333916991090625,5.333916991090625,0.0
4774,perov_4774.cif,0.188708271781,0.0018374654734000001,3.7,True,0.0,IrBaON2,5.637777990009608,5.637777990009608,0.0
4775,perov_4775.cif,0.157916892573,0.0036749309468000002,0.74,True,0.9990439285247916,KTiOFN,5.438547368929057,5.438547368929057,0.0
4776,perov_4776.cif,0.279206911489,0.0036749309468000002,1.18,True,-0.5296698925025061,MgReO2F,6.160887300801643,6.160887300801643,0.0
4777,perov_4777.cif,0.101365040531,0.0018374654734000001,1.86,True,-0.003632924534174721,HgBaO3,5.691648155016514,5.691648155016514,0.0
4778,perov_4778.cif,0.264079437915,0.0018374654734000001,0.76,True,0.04002792974044311,YZnO3,5.708304404725715,5.708304404725715,0.0
4779,perov_4779.cif,0.288850862636,0.0018374654734000001,1.8,True,0.00015024874493719338,CaBON2,5.187388252517256,5.187388252517256,0.0
4780,perov_4780.cif,0.25039922896,0.0036749309468000002,0.56,True,2.6800402284199043,SnCoO2F,6.420894269589533,6.420894269589533,0.0
4781,perov_4781.cif,0.274772716516,0.0018374654734000001,0.86,True,-0.3401773753184182,TaInO3,5.5834945405883865,5.5834945405883865,0.0
4782,perov_4782.cif,0.406012233245,0.0036749309468000002,1.24,True,-8.948479278794684e-07,LaIrOFN,6.2039124916728765,6.2039124916728765,0.0
4783,perov_4783.cif,0.257005725363,0.0018374654734000001,2.64,True,1.219524936101207,VLiN3,5.295347261290927,5.295347261290927,0.0
4784,perov_4784.cif,0.170643955082,0.0018374654734000001,0.96,True,0.005856006835442074,BeMoON2,5.97344538069124,5.97344538069124,0.0
4785,perov_4785.cif,0.267630731193,0.0018374654734000001,1.68,True,-7.460171360662567e-06,IrCaON2,5.419578948459179,5.419578948459179,0.0
4786,perov_4786.cif,0.191433003226,0.0036749309468000002,0.14,False,1.3892937179536493e-15,NaZrO2F,8.470017863840901,2.9700178638409,5.5
4787,perov_4787.cif,0.284646727657,0.0018374654734000001,1.36,True,1.1432661066708079,RhCrON2,5.7646778000203325,5.7646778000203325,0.0
4788,perov_4788.cif,0.275819825609,0.0018374654734000001,1.64,True,-0.27278975078783724,RhCoO2N,5.976022925671762,5.976022925671762,0.0
4789,perov_4789.cif,0.217255322646,0.0018374654734000001,1.58,True,0.636111598307778,HfBaO3,5.227027925426295,5.227027925426295,0.0
4790,perov_4790.cif,0.166439026281,0.0018374654734000001,3.54,True,4.907450473946403,RhBaN3,5.36094431840373,5.36094431840373,0.0
4791,perov_4791.cif,0.206308090196,0.0018374654734000001,0.94,True,-2.165986402266429,CrRuO2S,5.678415378133723,5.678415378133723,0.0
4792,perov_4792.cif,0.141281931131,0.0018374654734000001,1.3,True,0.99997228340672,ScSrO3,4.909443634204744,4.909443634204744,0.0
4793,perov_4793.cif,0.201604787118,0.0018374654734000001,0.74,True,0.99237153792258,CdZrO2N,5.814681010667712,5.814681010667712,0.0
4794,perov_4794.cif,0.127183818269,0.0018374654734000001,3.18,True,7.47926704651011,MnSrON2,4.946378510349112,4.946378510349112,0.0
4795,perov_4795.cif,0.254361976439,0.0018374654734000001,1.06,True,2.7052475090854884,AsFeON2,6.116924783105007,6.116924783105007,0.0
4796,perov_4796.cif,0.08462140572,0.0018374654734000001,2.9,True,0.8955404997936434,AgSrON2,5.124545490859185,5.124545490859185,0.0
4797,perov_4797.cif,0.26775177064,0.0018374654734000001,1.5,True,0.5514939272740166,RuRuN3,6.000751633533753,6.000751633533753,0.0
4798,perov_4798.cif,0.12927520582399998,0.0036749309468000002,1.84,True,4.1263403078138336e-15,CaCsO2F,4.9066095016638345,4.9066095016638345,0.0
4799,perov_4799.cif,0.23147723531300002,0.0018374654734000001,1.36,True,0.21950875463593533,BaCsO3,4.784017586537713,4.784017586537713,0.0
4800,perov_4800.cif,0.249269404322,0.0018374654734000001,2.06,True,-0.0006147751606756795,SiBeO3,6.304310462015402,6.304310462015402,0.0
4801,perov_4801.cif,0.11025955698899999,0.0036749309468000002,1.62,True,3.985748488179383,CrHgO2F,6.484116735178028,6.484116735178028,0.0
4802,perov_4802.cif,0.214645834358,0.0018374654734000001,1.56,True,-1.6895557304279325,CoBeO2N,6.1341978547779386,6.1341978547779386,0.0
4803,perov_4803.cif,0.167961877948,0.0018374654734000001,1.14,True,-0.09590462133072716,AlInO3,5.316800086108201,5.316800086108201,0.0
4804,perov_4804.cif,0.20846128334300001,0.0018374654734000001,1.14,True,0.029844136497125362,CuSiO2S,5.9600933339238775,5.9600933339238775,0.0
4805,perov_4805.cif,0.345415282557,0.0018374654734000001,1.1,True,2.9071889618876137,WAlO3,5.7025424582581214,5.7025424582581214,0.0
4806,perov_4806.cif,0.176361858999,0.0036749309468000002,1.52,True,-0.0016435723896035467,AsPdO2F,6.741170513904777,6.741170513904777,0.0
4807,perov_4807.cif,0.344595292478,0.0018374654734000001,1.24,True,0.3577031881648214,ScBO2N,5.678918348630423,5.678918348630423,0.0
4808,perov_4808.cif,0.109035633834,0.0036749309468000002,1.52,True,2.9928567980678866,CsCdOFN,5.604354409842822,5.604354409842822,0.0
4809,perov_4809.cif,0.266573304431,0.0018374654734000001,1.5,True,0.0014668771683901127,TiPtON2,5.9800885884627855,5.9800885884627855,0.0
4810,perov_4810.cif,0.229580125308,0.0018374654734000001,1.52,True,-1.001695041324176,RbCrON2,5.1041628123823735,5.1041628123823735,0.0
4811,perov_4811.cif,0.197743664123,0.0018374654734000001,1.14,True,4.589467649543144,RbCoO2N,5.291292079333685,5.291292079333685,0.0
4812,perov_4812.cif,0.320532696647,0.0036749309468000002,0.6,False,1.4441312379063e-15,BiBeO2F,7.981541893374957,5.081541893374958,2.9
4813,perov_4813.cif,0.180804593307,0.0018374654734000001,3.1,True,2.198619775519433,GeBaN3,5.4337439751154335,5.4337439751154335,0.0
4814,perov_4814.cif,0.17138483792599998,0.0018374654734000001,1.66,True,-0.14555386536674722,GaAuO2N,5.974341324114622,5.974341324114622,0.0
4815,perov_4815.cif,0.10403798489600001,0.0018374654734000001,1.52,True,0.6770570033278299,NiNaO2S,5.359639445105255,5.359639445105255,0.0
4816,perov_4816.cif,0.382538832973,0.0018374654734000001,1.4,True,0.8158405390443272,HfWO2N,5.7314734340134725,5.7314734340134725,0.0
4817,perov_4817.cif,0.18383058432100002,0.0018374654734000001,1.7,True,1.5076554370152877,PdHfN3,5.66426449249238,5.66426449249238,0.0
4818,perov_4818.cif,0.268059178167,0.0036749309468000002,0.58,True,0.012823847171954835,CdWOFN,6.443581172159509,6.443581172159509,0.0
4819,perov_4819.cif,0.255107467711,0.0018374654734000001,0.54,True,-1.9337261616032075,VAlO3,5.478207679118199,5.478207679118199,0.0
4820,perov_4820.cif,0.292122207413,0.0018374654734000001,1.32,True,0.2667884054624672,RuAsON2,6.244108432960595,6.244108432960595,0.0
4821,perov_4821.cif,0.311295680279,0.0018374654734000001,1.22,True,0.06769902702060904,SbBO2N,6.118777750521502,6.118777750521502,0.0
4822,perov_4822.cif,0.250733395165,0.0036749309468000002,0.26,True,3.8906437722473024,CdMnO2F,6.274765060244949,6.274765060244949,0.0
4823,perov_4823.cif,0.108077707223,0.0018374654734000001,1.56,True,1.9403284900539943,RhNaO2S,5.3350529059487855,5.3350529059487855,0.0
4824,perov_4824.cif,0.182931757796,0.0018374654734000001,1.4,True,-1.938140279097625,CoPtO2S,6.1001539795062145,6.1001539795062145,0.0
4825,perov_4825.cif,0.238683095748,0.0018374654734000001,1.0,True,0.5800313945299695,AsGeON2,6.271616583932266,6.271616583932266,0.0
4826,perov_4826.cif,0.132908072316,0.0036749309468000002,0.78,True,0.9964326699840348,NaHfOFN,5.60629402878466,5.60629402878466,0.0
4827,perov_4827.cif,0.201488593551,0.0018374654734000001,0.7,True,0.0388001851487978,AsTiO2S,5.779563775071216,5.779563775071216,0.0
4828,perov_4828.cif,0.24914794338100002,0.0018374654734000001,1.78,True,1.681427829488866,OsTeO3,6.48415258986662,6.48415258986662,0.0
4829,perov_4829.cif,0.319154242066,0.0018374654734000001,1.46,True,4.336965658683713,ReWON2,5.8788471597974095,5.8788471597974095,0.0
4830,perov_4830.cif,0.17888637936500001,0.0018374654734000001,2.1,True,4.999918826400394,PbMgN3,5.619747726920601,5.619747726920601,0.0
4831,perov_4831.cif,0.295081737292,0.0018374654734000001,1.36,True,-0.0011003708335954026,LaMgON2,5.3799767857840255,5.3799767857840255,0.0
4832,perov_4832.cif,0.0690738068162,0.0036749309468000002,3.22,True,0.0,SiCsO2F,5.7255650065119275,5.7255650065119275,0.0
4833,perov_4833.cif,0.261151993114,0.0018374654734000001,0.54,True,0.0012237780263362195,HgWO2N,6.240932832507963,6.240932832507963,0.0
4834,perov_4834.cif,0.266382282046,0.0036749309468000002,0.76,True,-9.014368580382774e-08,InAlOFN,5.632865333539858,5.632865333539858,0.0
4835,perov_4835.cif,0.40690977399899997,0.0018374654734000001,1.32,True,1.3230519471107948e-06,ZrSbN3,6.188338495972504,5.488338495972505,0.7
4836,perov_4836.cif,0.250483583384,0.0018374654734000001,2.4,True,-0.11267984118984975,OsLiON2,5.669540089177864,5.669540089177864,0.0
4837,perov_4837.cif,-0.07574034852639999,0.0036749309468000002,4.22,True,0.0,BKOFN,5.680813803978902,5.680813803978902,0.0
4838,perov_4838.cif,0.193251571245,0.0036749309468000002,0.6,True,-0.02573479549437789,InMgO2F,5.85176300106337,5.85176300106337,0.0
4839,perov_4839.cif,0.242360305354,0.0018374654734000001,1.8,True,-1.3159954959363764,BaPbN3,5.254574157462372,5.254574157462372,0.0
4840,perov_4840.cif,0.380124237297,0.0018374654734000001,1.02,True,0.01185317470924474,LaPtO2N,5.864045079759184,5.864045079759184,0.0
4841,perov_4841.cif,0.278478968574,0.0036749309468000002,1.52,True,6.969494028051312,WMnOFN,6.222360180621129,6.222360180621129,0.0
4842,perov_4842.cif,0.26320357740899997,0.0018374654734000001,1.02,True,-3.2010396758808784e-05,YSbO2S,5.5896234437709715,5.5896234437709715,0.0
4843,perov_4843.cif,0.23103605679900002,0.0036749309468000002,1.54,True,-1.4769753947271356e-15,TePdOFN,6.741281993154796,6.741281993154796,0.0
4844,perov_4844.cif,0.214006673467,0.0018374654734000001,1.22,True,1.0007422195016389,ZrLaO2S,5.220327297931113,5.220327297931113,0.0
4845,perov_4845.cif,0.254306003077,0.0036749309468000002,0.44,True,4.739158095429809,CrTiO2F,5.968710892095367,5.968710892095367,0.0
4846,perov_4846.cif,0.16045616812400001,0.0036749309468000002,1.26,True,-0.8900394997783131,MgPtO2F,6.579386948227872,6.579386948227872,0.0
4847,perov_4847.cif,0.24459667757,0.0036749309468000002,0.36,True,2.9947699949516657,GeCrO2F,6.3222008772351375,6.3222008772351375,0.0
4848,perov_4848.cif,0.2313549506,0.0018374654734000001,2.1,True,2.9647641439699903,ReAuO3,6.294207018178755,6.294207018178755,0.0
4849,perov_4849.cif,0.294461857572,0.0018374654734000001,0.88,True,1.0853347035458187,NiReO3,5.962060730909122,5.962060730909122,0.0
4850,perov_4850.cif,0.33651566382299997,0.0018374654734000001,1.14,True,1.3273234569097738,NbNiO3,5.959084163907744,5.959084163907744,0.0
4851,perov_4851.cif,0.286312200646,0.0018374654734000001,1.88,True,3.8445549069539418,TlNiN3,6.21620961420907,6.21620961420907,0.0
4852,perov_4852.cif,0.15514341859,0.0018374654734000001,2.82,True,-1.0577418253739916,YRbO2S,4.831448732505538,4.831448732505538,0.0
4853,perov_4853.cif,0.244126098363,0.0036749309468000002,0.2,True,1.7708415116492502e-13,AuTaO2F,6.745281369742278,6.745281369742278,0.0
4854,perov_4854.cif,0.37650137075999995,0.0018374654734000001,0.92,True,8.269548514050483e-05,YAsO2N,5.870001107462289,5.870001107462289,0.0
4855,perov_4855.cif,0.284195693853,0.0018374654734000001,0.86,True,0.8740086929004125,LaBeO2S,5.540088112275651,5.540088112275651,0.0
4856,perov_4856.cif,0.14002408487600002,0.0018374654734000001,1.38,True,1.9999896418640648,AsLiO3,5.843128789194228,5.843128789194228,0.0
4857,perov_4857.cif,0.177881874816,0.0018374654734000001,1.08,True,0.9385232127162181,TiMgO2N,5.564100237351772,5.564100237351772,0.0
4858,perov_4858.cif,0.24601016426300001,0.0018374654734000001,1.22,True,0.05053171466039075,BiCdO3,5.999652480296934,5.999652480296934,0.0
4859,perov_4859.cif,0.21043690811000001,0.0018374654734000001,1.02,True,3.277625176269062,CrPdO2S,5.6657402173583575,5.6657402173583575,0.0
4860,perov_4860.cif,0.20082178812600002,0.0018374654734000001,0.1,True,-0.028994956846674937,KMoO2N,5.2239723218612975,5.2239723218612975,0.0
4861,perov_4861.cif,0.12176805605299999,0.0018374654734000001,1.04,True,1.9633570491615997,NaNbON2,5.387083781226802,5.387083781226802,0.0
4862,perov_4862.cif,0.0528901893143,0.0018374654734000001,1.88,True,0.9245681041471734,LiHgO3,5.825381676793116,5.825381676793116,0.0
4863,perov_4863.cif,0.221654309399,0.0018374654734000001,1.24,True,-2.8435592553482865,CrCuO2N,5.8531420403790975,5.8531420403790975,0.0
4864,perov_4864.cif,0.113412201066,0.0036749309468000002,1.86,True,0.0,AlLaOFN,5.603487640892657,5.603487640892657,0.0
4865,perov_4865.cif,0.13836213668400002,0.0018374654734000001,2.0,True,-0.12700947767867413,AsHgO2S,6.2786365219327855,6.2786365219327855,0.0
4866,perov_4866.cif,0.130255398437,0.0036749309468000002,1.18,True,1.96784646601792,CuGaOFN,6.0595674184746455,6.0595674184746455,0.0
4867,perov_4867.cif,0.212982509008,0.0036749309468000002,1.76,True,1.6895988089536065,ScLiOFN,5.64441082114492,5.64441082114492,0.0
4868,perov_4868.cif,0.0788131136274,0.0018374654734000001,1.84,True,-1.1254861651588566,AgNaO2N,5.539498366956497,5.539498366956497,0.0
4869,perov_4869.cif,0.17338124382599998,0.0018374654734000001,2.48,True,0.001277071292630392,SrLiON2,4.741241289495897,4.741241289495897,0.0
4870,perov_4870.cif,0.44733651356000004,0.0018374654734000001,1.26,True,-2.344384491712573,TaSiO3,6.083522905834628,6.083522905834628,0.0
4871,perov_4871.cif,0.0717439603838,0.0018374654734000001,2.26,True,-3.8632241098184483,MnNaO2N,5.346904565351731,5.346904565351731,0.0
4872,perov_4872.cif,0.20939492016,0.0018374654734000001,1.54,True,-0.0002025850125146833,CdGaON2,5.627085324546886,5.627085324546886,0.0
4873,perov_4873.cif,0.148485256262,0.0018374654734000001,2.58,True,0.0,RhYN3,5.551015937601599,5.551015937601599,0.0
4874,perov_4874.cif,0.211835714813,0.0036749309468000002,0.86,True,0.008757244367281203,GeSbO2F,6.666656067029115,6.666656067029115,0.0
4875,perov_4875.cif,0.22700876531300002,0.0018374654734000001,2.22,True,1.604517984260546,TaAgO2S,5.774434145279746,5.774434145279746,0.0
4876,perov_4876.cif,0.12727249935999999,0.0036749309468000002,1.92,True,3.7583505721085335,CoTlOFN,6.695209688660962,6.695209688660962,0.0
4877,perov_4877.cif,0.0121827659607,0.0036749309468000002,2.32,True,3.1290120395759478,ZnNaOFN,5.912851848388102,5.912851848388102,0.0
4878,perov_4878.cif,0.309839824224,0.0018374654734000001,0.64,True,-4.062745139711985,CrReO2N,5.724826578145554,5.724826578145554,0.0
4879,perov_4879.cif,0.32566057799000003,0.0018374654734000001,3.84,True,-0.0016571887784398436,ZrCsN3,4.9800046263529625,4.9800046263529625,0.0
4880,perov_4880.cif,0.280235667164,0.0018374654734000001,1.24,True,0.005345784371687756,TeIrO2S,6.351828852930336,6.351828852930336,0.0
4881,perov_4881.cif,0.215999318193,0.0018374654734000001,0.44,True,-0.00040104703732794534,RbTeO3,5.595444933776748,5.595444933776748,0.0
4882,perov_4882.cif,0.251430778854,0.0018374654734000001,1.22,True,3.9995046192077295,MoTeO3,6.197326484150282,6.197326484150282,0.0