,id,fermi level,fermi width,e_form,gap is direct,mu_b,formula,vbm,cbm,gap gllbsc
602,perov_602.cif,0.197596660522,0.0018374654734000001,1.52,True,1.8721577361140849,YLiO2S,5.080980207383369,5.080980207383369,0.0
603,perov_603.cif,0.163026803998,0.0036749309468000002,1.38,True,-4.328090357128022e-16,TeCdO2F,6.7827115875579596,6.7827115875579596,0.0
604,perov_604.cif,0.23460380419500002,0.0018374654734000001,2.44,True,-0.04057256393378545,ZrKN3,5.080471230972414,5.080471230972414,0.0
605,perov_605.cif,0.108724318446,0.0018374654734000001,1.04,True,-0.7591922070889964,BeGaO3,5.822992052871399,5.822992052871399,0.0
606,perov_606.cif,0.31191582139,0.0018374654734000001,1.48,True,1.5836943289794014,OsSbON2,6.237102469286758,6.237102469286758,0.0
607,perov_607.cif,0.198594782053,0.0018374654734000001,0.28,False,0.011823147325447536,CuNbO3,6.485597662895019,5.475597662895019,1.0
608,perov_608.cif,0.160651193068,0.0018374654734000001,1.4,True,-0.8564716924888777,NaPtO2N,5.7964872335093744,5.7964872335093744,0.0
609,perov_609.cif,0.31277994573600004,0.0018374654734000001,2.08,True,0.5893321269678929,CaBN3,5.151060385550892,5.151060385550892,0.0
610,perov_610.cif,0.21865904721,0.0036749309468000002,0.88,True,3.478912312659297,FeSnO2F,6.347563208186722,6.347563208186722,0.0
611,perov_611.cif,0.132421945848,0.0018374654734000001,3.48,True,0.0,SrRbON2,4.50839469623415,4.50839469623415,0.0
612,perov_612.cif,0.21293796238499998,0.0018374654734000001,1.28,True,1.9806568635798736,BeCrO3,6.001016069259473,6.001016069259473,0.0
613,perov_613.cif,0.129539771813,0.0036749309468000002,3.3,True,-8.323503681960999e-15,ScRbOFN,5.367208765728526,5.367208765728526,0.0
614,perov_614.cif,0.171708521978,0.0018374654734000001,2.66,True,3.752634335846489,KAuN3,5.570816873244397,5.570816873244397,0.0
615,perov_615.cif,0.23685118600299998,0.0018374654734000001,1.26,True,2.9991335697435346,SnZrN3,5.699471867919883,5.699471867919883,0.0
616,perov_616.cif,0.171536343678,0.0018374654734000001,-0.06,True,6.631484529684427e-05,NaWO2N,5.52948112531335,5.52948112531335,0.0
617,perov_617.cif,0.289841915106,0.0036749309468000002,0.76,True,-0.003849751298241143,CdReO2F,6.36968207321512,6.36968207321512,0.0
618,perov_618.cif,0.22477325083,0.0036749309468000002,0.72,True,3.4311574352091363e-16,ZnWOFN,6.449388825729959,6.449388825729959,0.0
619,perov_619.cif,0.173480287794,0.0018374654734000001,1.7,True,0.8236543117518772,TaSrO2S,4.923102045754415,4.923102045754415,0.0
620,perov_620.cif,0.22640766631499998,0.0018374654734000001,1.28,True,2.636594201799788,InHfN3,5.269190025998864,5.269190025998864,0.0
621,perov_621.cif,0.21208741755600002,0.0036749309468000002,1.5,True,1.7684284770023098,AlCoO2F,6.056236606990062,6.056236606990062,0.0
622,perov_622.cif,0.0628324348604,0.0018374654734000001,2.4,True,0.736304107254675,NaMgON2,5.317995740349008,5.317995740349008,0.0
623,perov_623.cif,0.215748800491,0.0036749309468000002,1.28,True,6.204652485033844e-11,PdAsOFN,6.693961333927187,6.693961333927187,0.0
624,perov_624.cif,0.254761721585,0.0018374654734000001,0.58,True,-0.1612622805680255,TiNbO2N,5.636385512371769,5.636385512371769,0.0
625,perov_625.cif,0.145573855784,0.0018374654734000001,0.92,True,0.944797538299834,CsTiO2S,4.843158802772813,4.843158802772813,0.0
626,perov_626.cif,0.166367263006,0.0018374654734000001,1.52,True,0.9998784575636924,SbCaO3,5.391503228484131,5.391503228484131,0.0
627,perov_627.cif,0.234389496981,0.0018374654734000001,1.44,True,2.72137488669553,FeRhN3,5.825316741460862,5.825316741460862,0.0
628,perov_628.cif,0.245097937901,0.0018374654734000001,1.98,True,0.00043751738922815384,CsGeON2,5.255489211331222,5.255489211331222,0.0
629,perov_629.cif,0.415696681978,0.0036749309468000002,0.6,True,0.10297433339101043,LaHfOFN,5.6716351802044915,5.6716351802044915,0.0
630,perov_630.cif,0.022104642166300002,0.0018374654734000001,1.84,True,0.4630064788579578,LiNaO2S,4.967734060400678,4.967734060400678,0.0
631,perov_631.cif,0.12401377835699999,0.0036749309468000002,1.8,True,-0.07624451003472246,AsCdOFN,6.687933443612008,6.687933443612008,0.0
632,perov_632.cif,0.299915658669,0.0018374654734000001,0.84,True,0.0,PbCrON2,5.650296887079642,5.650296887079642,0.0
633,perov_633.cif,0.280421375972,0.0018374654734000001,1.02,True,2.2838529864139225,PbCoO2N,5.857448569618347,5.857448569618347,0.0
634,perov_634.cif,0.31604736275600004,0.0018374654734000001,0.72,True,1.0000515250516353,VSiON2,5.844598069521823,5.844598069521823,0.0
635,perov_635.cif,0.22478508513099998,0.0018374654734000001,0.96,True,0.9249763533496383,SrBO3,5.161482310865514,5.161482310865514,0.0
636,perov_636.cif,0.279511843294,0.0018374654734000001,1.88,True,0.4084023355620445,IrCuON2,6.247936597635463,6.247936597635463,0.0
637,perov_637.cif,0.177575364763,0.0018374654734000001,0.82,True,0.04411054941212456,TlSnO2S,6.082529549121907,6.082529549121907,0.0
638,perov_638.cif,0.236598132698,0.0018374654734000001,0.94,True,0.9727154688138808,SbSnON2,6.078757220188256,6.078757220188256,0.0
639,perov_639.cif,0.173754345531,0.0018374654734000001,1.78,True,0.9999690936272394,ScCaO3,5.003925270586783,5.003925270586783,0.0
640,perov_640.cif,0.301396455555,0.0018374654734000001,2.12,True,2.319537800217263,CsFeON2,5.125860577397842,5.125860577397842,0.0
641,perov_641.cif,0.159372685966,0.0036749309468000002,1.3,True,-1.3212706351728076,CsPdO2F,5.648966009551152,5.648966009551152,0.0
642,perov_642.cif,0.167397089991,0.0036749309468000002,1.02,True,0.9199488508617968,InBiOFN,5.918296601132336,5.918296601132336,0.0
643,perov_643.cif,0.26023528496,0.0018374654734000001,0.48,True,0.6690908721590442,WTaON2,5.905002233614512,5.905002233614512,0.0
644,perov_644.cif,0.23048309309,0.0018374654734000001,1.26,True,0.003623861346202517,AuSiO2S,6.269495869524044,6.269495869524044,0.0
645,perov_645.cif,0.270830688827,0.0018374654734000001,1.92,True,2.406549235921375,BiInN3,5.469672829902583,5.469672829902583,0.0
646,perov_646.cif,0.206688306008,0.0018374654734000001,0.6,True,0.006661507683741519,GaMoO2S,5.354500759291726,5.354500759291726,0.0
647,perov_647.cif,0.241901376161,0.0036749309468000002,0.16,True,6.320237950774298e-07,InNbO2F,5.927785408971146,5.927785408971146,0.0
648,perov_648.cif,0.11095001903400001,0.0018374654734000001,2.32,True,1.0806763993034565,CaKO2N,4.658782999576078,4.658782999576078,0.0
649,perov_649.cif,0.254346913174,0.0018374654734000001,0.68,True,-0.1726765803434379,CaVON2,5.008616684764934,5.008616684764934,0.0
650,perov_650.cif,0.20634785319899998,0.0018374654734000001,2.5,True,4.413514899533829,TlTlN3,6.497549313628237,6.497549313628237,0.0
651,perov_651.cif,0.199735253397,0.0018374654734000001,2.28,True,1.442539035567474,IrAuO3,6.66531071724443,6.66531071724443,0.0
652,perov_652.cif,0.23532038949099998,0.0018374654734000001,1.34,True,-0.0044248103421785385,NbTlO3,6.228786611465996,6.228786611465996,0.0
653,perov_653.cif,0.29115550664,0.0018374654734000001,0.92,True,1.3324767042848578,YZrN3,5.369069921886736,5.369069921886736,0.0
654,perov_654.cif,0.271814280766,0.0018374654734000001,1.16,True,-0.07791593007486752,GaOsON2,5.739374014281796,5.739374014281796,0.0
655,perov_655.cif,0.231212226623,0.0018374654734000001,1.24,True,0.2980043898248503,LaBaO2N,5.0658604267138765,5.0658604267138765,0.0
656,perov_656.cif,0.26321744038,0.0018374654734000001,1.0,True,1.6576089552767492,WHfO3,5.771894665536238,5.771894665536238,0.0
657,perov_657.cif,0.188527145284,0.0018374654734000001,1.26,True,1.6852776365859905,InInO2N,5.2428755643236205,5.2428755643236205,0.0
658,perov_658.cif,0.257822819767,0.0018374654734000001,1.7,True,1.3337992499657894,SbSnN3,6.036186995468972,6.036186995468972,0.0
659,perov_659.cif,0.0735564011136,0.0036749309468000002,1.6,True,0.21584391155442614,MgBaO2F,5.683833517602171,5.683833517602171,0.0
660,perov_660.cif,0.27737388797400003,0.0018374654734000001,1.2,True,3.462028450412145,NbVO2S,5.50996151954242,5.50996151954242,0.0
661,perov_661.cif,0.226471107463,0.0036749309468000002,0.1,False,-2.4422070245999754e-15,KHfO2F,8.314143362348096,2.6141433623480954,5.7
662,perov_662.cif,0.35646658955899996,0.0018374654734000001,1.54,True,2.0062696775329485,IrReON2,6.110966254698161,6.110966254698161,0.0
663,perov_663.cif,0.248661258232,0.0018374654734000001,0.74,True,0.9945251922977152,CdTiO2N,5.75266967321736,5.75266967321736,0.0
664,perov_664.cif,0.249292585732,0.0018374654734000001,1.82,True,0.0001789368154234694,PdAlN3,5.596205515687591,5.596205515687591,0.0
665,perov_665.cif,0.122410780411,0.0018374654734000001,2.5,True,0.33842689347274296,PbRbON2,5.149983662706045,5.149983662706045,0.0
666,perov_666.cif,0.125751200487,0.0036749309468000002,2.04,True,0.0,PtLaOFN,6.256456811148193,6.256456811148193,0.0
667,perov_667.cif,0.238860270374,0.0018374654734000001,2.02,True,3.1140234671731184,CaCuN3,5.1959000168131695,5.1959000168131695,0.0
668,perov_668.cif,0.209914459714,0.0036749309468000002,1.28,True,1.997465039360236,TiInO2F,5.754986300717184,5.754986300717184,0.0
669,perov_669.cif,0.240557723458,0.0018374654734000001,1.32,True,1.2235771252571868,ScSnN3,5.602264779336278,5.602264779336278,0.0
670,perov_670.cif,0.22192252510299998,0.0018374654734000001,0.62,True,3.0000000001852514,VHfO3,5.544831609979879,5.544831609979879,0.0
671,perov_671.cif,0.131171108636,0.0036749309468000002,1.84,True,0.9590035214446909,BeGaOFN,6.1691486497297445,6.1691486497297445,0.0
672,perov_672.cif,0.00160306435843,0.0018374654734000001,2.5,True,0.14860494913954264,LiRbO3,4.961733753386168,4.961733753386168,0.0
673,perov_673.cif,0.241486489231,0.0036749309468000002,1.58,True,-3.506999363375766e-10,BiAuOFN,6.701307556230263,6.701307556230263,0.0
674,perov_674.cif,0.233927993465,0.0018374654734000001,1.04,True,1.9997742796193272,LaCaO2N,4.8697963227892505,4.8697963227892505,0.0
675,perov_675.cif,0.10378674495100002,0.0018374654734000001,3.02,True,0.0001598408963036525,RbLiON2,4.892481928696716,4.892481928696716,0.0
676,perov_676.cif,0.125555990467,0.0018374654734000001,3.44,True,-0.6233995471585333,TaKO2S,5.114414373429356,5.114414373429356,0.0
677,perov_677.cif,0.27332957498000005,0.0018374654734000001,0.68,True,0.005089254180255409,LaYO2N,5.24546988294912,5.24546988294912,0.0
678,perov_678.cif,0.18001473351599998,0.0036749309468000002,0.9,True,-6.680104400754483e-07,CdCuO2F,6.512451236324,6.512451236324,0.0
679,perov_679.cif,0.275975898018,0.0018374654734000001,1.0,True,-0.1567422359531219,PbSbON2,5.958144442768588,5.958144442768588,0.0
680,perov_680.cif,0.13393662721400001,0.0018374654734000001,1.74,True,-0.0010542895836958854,InYON2,5.236043367823188,5.236043367823188,0.0
681,perov_681.cif,0.17359546928199998,0.0018374654734000001,2.04,True,-1.6578960742289557,VCdO2N,5.801844945005202,5.801844945005202,0.0
682,perov_682.cif,0.197362285277,0.0018374654734000001,0.76,True,-0.00028691949805115485,AsZrO2S,5.841865019524789,5.841865019524789,0.0
683,perov_683.cif,0.09067653272710001,0.0036749309468000002,0.84,True,0.9997564078793744,MgCaO2F,5.4638519879870096,5.4638519879870096,0.0
684,perov_684.cif,0.18175255454199998,0.0018374654734000001,1.48,True,0.0013529858887171287,BeBO2S,5.943013843056222,5.943013843056222,0.0
685,perov_685.cif,0.37549894034000003,0.0018374654734000001,1.38,True,0.2436440530095219,TaIrN3,6.095167842340323,6.095167842340323,0.0
686,perov_686.cif,0.16236747441299998,0.0018374654734000001,1.24,True,1.1887692918122426,CoCaO2S,5.0658729620590695,5.0658729620590695,0.0
687,perov_687.cif,0.219168034875,0.0036749309468000002,2.4,True,1.026842623046651,HfNaOFN,5.60629402878466,5.60629402878466,0.0
688,perov_688.cif,0.26179318364,0.0018374654734000001,0.76,True,3.453975119521412,SrCoO2N,5.127723075310847,5.127723075310847,0.0
689,perov_689.cif,0.23489340059900002,0.0018374654734000001,1.18,True,1.3890466403765345e-05,TeTeO3,6.635993065167682,6.635993065167682,0.0
690,perov_690.cif,0.289548120807,0.0018374654734000001,0.88,True,-0.04865343055880312,SrCrON2,4.946378510349112,4.946378510349112,0.0
691,perov_691.cif,0.216539347855,0.0018374654734000001,1.94,True,3.2928006795740594,MnAgON2,5.801735714633344,5.801735714633344,0.0
692,perov_692.cif,0.16797832954,0.0018374654734000001,1.94,True,1.1481629000630456,CdHgO2N,6.249420079880093,6.249420079880093,0.0
693,perov_693.cif,0.25601226201,0.0036749309468000002,0.52,True,4.999337697509528,CrZrO2F,6.033051062190046,6.033051062190046,0.0
694,perov_694.cif,0.313558160767,0.0036749309468000002,0.98,True,2.96290915085239,ScCrOFN,5.888625084563388,5.888625084563388,0.0
695,perov_695.cif,0.132508048381,0.0018374654734000001,2.46,True,-0.0007849286895477348,AgAgON2,6.010712389554392,6.010712389554392,0.0
696,perov_696.cif,0.144459221611,0.0018374654734000001,2.02,True,0.0,KBiON2,5.242086670972972,5.242086670972972,0.0
697,perov_697.cif,0.24625649935199997,0.0036749309468000002,1.02,False,-6.544738485021965e-16,ZnBO2F,7.262069089949961,5.662069089949961,1.6
698,perov_698.cif,0.252803327333,0.0036749309468000002,0.76,True,2.248954879536584e-10,IrTaOFN,6.595094852372791,6.595094852372791,0.0
699,perov_699.cif,0.132021797213,0.0018374654734000001,1.18,True,1.989923112534257,NaRuO2S,5.383782942729318,5.383782942729318,0.0
700,perov_700.cif,0.34472318482600006,0.0018374654734000001,0.76,True,1.5775375840745465,YMnN3,5.3924654485429215,5.3924654485429215,0.0
701,perov_701.cif,0.201406130669,0.0018374654734000001,3.26,True,1.0522445986239108,TiBaON2,5.1661086701231405,5.1661086701231405,0.0
702,perov_702.cif,0.240555304336,0.0018374654734000001,1.24,True,1.95050581420821,CaTiN3,4.931386043212856,4.931386043212856,0.0
703,perov_703.cif,0.151564721238,0.0018374654734000001,1.64,True,-0.0006730015098687729,HgScON2,5.864839797670364,5.864839797670364,0.0
704,perov_704.cif,0.20953321152899998,0.0018374654734000001,1.14,False,-9.378220303162177e-05,BeSiO2S,6.867875675603161,5.267875675603161,1.6
705,perov_705.cif,0.220494836105,0.0018374654734000001,1.0,True,-0.0011476550960620505,CaPdO3,5.299483253131587,5.299483253131587,0.0
706,perov_706.cif,0.265806067485,0.0036749309468000002,1.8,True,2.501557754090044,WCuOFN,6.458061275932042,6.458061275932042,0.0
707,perov_707.cif,0.399037832605,0.0018374654734000001,0.64,True,0.6716161350460936,LaRuO3,5.658754815324758,5.658754815324758,0.0
708,perov_708.cif,0.287519651919,0.0018374654734000001,0.88,True,-1.13690894688435,CrMnO2N,5.639518797894671,5.639518797894671,0.0
709,perov_709.cif,0.15617939974300002,0.0018374654734000001,2.0,True,2.9467378477573494,MgInON2,5.408182666583767,5.408182666583767,0.0
710,perov_710.cif,0.182395738048,0.0018374654734000001,2.08,True,2.3384497260157744,LiAsN3,5.721226209978116,5.721226209978116,0.0
711,perov_711.cif,0.0352940619966,0.0018374654734000001,2.9,True,0.0,CoBaO2S,5.26983135724986,5.26983135724986,0.0
712,perov_712.cif,0.0994501701726,0.0036749309468000002,1.44,True,-1.5673408060594554,GeLiO2F,6.060005269899736,6.060005269899736,0.0
713,perov_713.cif,0.30640573009,0.0018374654734000001,1.46,True,2.0297883477827234,IrWON2,6.2254614228716205,6.2254614228716205,0.0
714,perov_714.cif,0.14779114712400002,0.0018374654734000001,1.52,True,0.0,TlLaO2N,5.8471028100024105,5.8471028100024105,0.0
715,perov_715.cif,0.10966909553200001,0.0018374654734000001,1.98,True,0.998995358994966,BeScO3,5.873074299603499,5.873074299603499,0.0
716,perov_716.cif,0.225920419424,0.0018374654734000001,1.86,True,0.2169925673037234,TiCaON2,4.966164656300008,4.966164656300008,0.0
717,perov_717.cif,0.31299457567600003,0.0018374654734000001,1.56,True,0.13702993344154638,OsCoO2N,6.131692054164207,6.131692054164207,0.0
718,perov_718.cif,0.266361629535,0.0018374654734000001,0.94,True,0.6590486562017048,OsCrON2,5.914841609686111,5.914841609686111,0.0
719,perov_719.cif,0.324528242665,0.0018374654734000001,1.9,True,0.0063016925641932175,IrPtN3,6.480372001203195,6.480372001203195,0.0
720,perov_720.cif,0.254223457782,0.0036749309468000002,1.36,True,4.431973509826778,ReNbO2F,6.240925656314379,6.240925656314379,0.0
721,perov_721.cif,0.211292311425,0.0036749309468000002,2.1,True,4.9927918900441455,ReBiOFN,6.230935594224843,6.230935594224843,0.0
722,perov_722.cif,0.299930642544,0.0018374654734000001,1.86,True,0.2662318398256751,SiZnN3,6.054998491133526,6.054998491133526,0.0
723,perov_723.cif,0.158002432772,0.0018374654734000001,3.02,True,-0.08208813934660031,TeSrON2,5.346791237038428,5.346791237038428,0.0
724,perov_724.cif,0.207399047432,0.0036749309468000002,1.14,False,-2.712674840548507e-15,SiGaO2F,7.426742870098604,4.926742870098604,2.5
725,perov_725.cif,0.307964222942,0.0036749309468000002,1.52,True,-1.7345584662853069,YOsO2F,6.206232551124463,6.206232551124463,0.0
726,perov_726.cif,0.261619083169,0.0036749309468000002,0.64,True,9.992147516163104e-16,HgReO2F,6.582200565623302,6.582200565623302,0.0
727,perov_727.cif,0.0892252745612,0.0018374654734000001,3.24,True,4.843345267123332,BScN3,5.599656647488826,5.599656647488826,0.0
728,perov_728.cif,0.282584884009,0.0018374654734000001,1.9,True,2.9295196436941118,ReNbN3,5.727452805992024,5.727452805992024,0.0
729,perov_729.cif,0.29620631854699997,0.0018374654734000001,0.5,True,-0.005640422794326491,ScNbO2N,5.599975981172165,5.599975981172165,0.0
730,perov_730.cif,0.182538880516,0.0036749309468000002,1.68,True,3.0509295882675582,RhCuOFN,6.428435891974437,6.428435891974437,0.0
731,perov_731.cif,0.16381291148,0.0036749309468000002,0.88,True,-0.0014598821696458952,GeZnO2F,6.552872303767901,6.552872303767901,0.0
732,perov_732.cif,0.458440614024,0.0018374654734000001,0.4,True,0.011144969892544768,LaWO3,5.633378210269858,5.633378210269858,0.0
733,perov_733.cif,0.16878776493099998,0.0018374654734000001,2.86,True,4.920378709709742,PtPbN3,6.082492832177143,6.082492832177143,0.0
734,perov_734.cif,0.13590414671499998,0.0036749309468000002,1.32,True,1.9970960260770632,PbCaOFN,5.46550731308434,5.46550731308434,0.0
735,perov_735.cif,0.146738321133,0.0036749309468000002,0.8,True,3.4304989540551745,KCoO2F,5.7235423508934495,5.7235423508934495,0.0
736,perov_736.cif,0.262533855271,0.0018374654734000001,1.8,True,2.3630549596274264,HgSbN3,6.2748463351522235,6.2748463351522235,0.0
737,perov_737.cif,0.18076131966200001,0.0018374654734000001,1.4,True,4.467542465906779,FePtO2S,6.030485994447435,6.030485994447435,0.0
738,perov_738.cif,0.172518090011,0.0018374654734000001,2.06,True,2.394447980501333,MoCdO2S,5.714388117802383,5.714388117802383,0.0
739,perov_739.cif,0.265566896144,0.0036749309468000002,0.36,False,-2.9563125084215075e-15,SnTiOFN,6.601175722163865,5.601175722163865,1.0
740,perov_740.cif,0.252752844787,0.0018374654734000001,1.7,True,-0.935133326301962,NbAuO2N,6.2470075891747685,6.2470075891747685,0.0
741,perov_741.cif,0.08405103156580002,0.0018374654734000001,1.64,True,0.0,RbTlO2S,5.385595207027087,5.385595207027087,0.0
742,perov_742.cif,0.28214527865600003,0.0018374654734000001,0.6,True,0.013181896361491145,PbWO2S,5.7036980078542925,5.7036980078542925,0.0
743,perov_743.cif,0.159561974746,0.0036749309468000002,1.64,True,3.126047901094367,NiCuOFN,6.458061275932042,6.458061275932042,0.0
744,perov_744.cif,0.141733379646,0.0018374654734000001,1.28,True,-0.40187065792609344,GaTlO3,5.95691564653422,5.95691564653422,0.0
745,perov_745.cif,0.2220636931,0.0018374654734000001,1.38,True,-2.7362494442025747,FeBeO2N,6.0641410650755825,6.0641410650755825,0.0
746,perov_746.cif,0.13690821976,0.0036749309468000002,1.6,True,0.0,PbBaOFN,5.685555488162758,5.685555488162758,0.0
747,perov_747.cif,0.27035604452100004,0.0036749309468000002,0.16,False,-1.1251919582578789e-15,CaGaO2F,7.143253193578429,3.4432531935784287,3.7
748,perov_748.cif,0.385284938185,0.0018374654734000001,1.38,True,-0.0017771615992113407,HfSbN3,5.762618511949171,5.762618511949171,0.0
749,perov_749.cif,0.270647792736,0.0018374654734000001,1.24,True,2.2953879279828087,RhSbO3,6.164800466842487,6.164800466842487,0.0
750,perov_750.cif,0.100995037796,0.0018374654734000001,1.72,True,2.149193515996025,ZnYO2N,5.668328502995636,5.668328502995636,0.0
751,perov_751.cif,0.0535668411498,0.0036749309468000002,1.38,True,0.0,NaYOFN,5.532012234638788,5.532012234638788,0.0