,id,fermi level,fermi width,e_form,gap is direct,mu_b,formula,vbm,cbm,gap gllbsc
1641,perov_1641.cif,0.138821905832,0.0036749309468000002,2.66,True,-0.10163725078619616,BiCsOFN,5.520942329935043,5.520942329935043,0.0
1642,perov_1642.cif,0.221329101296,0.0018374654734000001,1.84,True,-0.4573254225185977,NbHgON2,6.080213907923278,6.080213907923278,0.0
1643,perov_1643.cif,0.15269930078900001,0.0018374654734000001,0.82,True,1.9986857004168077,PbMgO3,5.7394880967841,5.7394880967841,0.0
1644,perov_1644.cif,0.37232282360200003,0.0018374654734000001,2.58,True,0.0110461336876746,OsTeN3,6.348876618165065,6.348876618165065,0.0
1645,perov_1645.cif,0.295592792766,0.0018374654734000001,1.32,True,0.0049810829318559504,LaAgO2N,5.604061017385962,5.604061017385962,0.0
1646,perov_1646.cif,0.20116800346299998,0.0018374654734000001,1.5,True,0.01409882866715151,BeLaO2S,5.540088112275651,5.540088112275651,0.0
1647,perov_1647.cif,0.17071796848200002,0.0036749309468000002,1.1,True,-0.1814692678813185,RbTeOFN,5.928074646920408,5.928074646920408,0.0
1648,perov_1648.cif,0.11396652839600001,0.0036749309468000002,1.62,True,5.597390364341464e-15,MgAgO2F,6.287688006036947,6.287688006036947,0.0
1649,perov_1649.cif,0.270174551627,0.0036749309468000002,0.42,True,-2.3825292262122325e-15,PbGeO2F,6.378956241583862,6.378956241583862,0.0
1650,perov_1650.cif,0.22420947622499998,0.0018374654734000001,1.02,True,3.0140151809554108,AlFeO2N,5.5722563249573245,5.5722563249573245,0.0
1651,perov_1651.cif,0.254520412023,0.0018374654734000001,1.58,True,1.6935517808984752,VAlN3,5.363918285599951,5.363918285599951,0.0
1652,perov_1652.cif,0.22285913205699998,0.0036749309468000002,1.24,True,1.7842299397066537,CaBeOFN,5.723738388262039,5.723738388262039,0.0
1653,perov_1653.cif,0.33149594305999996,0.0018374654734000001,1.62,True,0.0011795278686967947,SnBON2,5.931409509663384,5.931409509663384,0.0
1654,perov_1654.cif,0.172310196431,0.0036749309468000002,0.64,True,2.444852658117368e-15,CdAsO2F,6.735100111877237,6.735100111877237,0.0
1655,perov_1655.cif,0.10708211419500001,0.0036749309468000002,2.06,True,-5.6237827425627254e-15,BBiO2F,6.360158799656102,6.360158799656102,0.0
1656,perov_1656.cif,0.284218910639,0.0018374654734000001,1.22,True,2.4547630826679354,RuMnON2,5.817332003488432,5.817332003488432,0.0
1657,perov_1657.cif,0.15102188693399998,0.0036749309468000002,1.58,False,-1.219720402776374e-15,BNbOFN,6.431443821947736,6.131443821947736,0.3
1658,perov_1658.cif,0.16670596062999998,0.0018374654734000001,1.64,True,0.000607112292971834,LiRuON2,5.576074421303958,5.576074421303958,0.0
1659,perov_1659.cif,0.12217952341499999,0.0018374654734000001,1.34,True,1.3524597828110403,LiRhO2N,5.564573239844066,5.564573239844066,0.0
1660,perov_1660.cif,0.0795597293295,0.0018374654734000001,1.22,True,1.9938720320201355,KScO2S,4.9089480258962865,4.9089480258962865,0.0
1661,perov_1661.cif,0.289392355205,0.0018374654734000001,1.18,True,2.1664685853274004,NiReN3,5.837676927853988,5.837676927853988,0.0
1662,perov_1662.cif,0.26958284489900003,0.0018374654734000001,1.14,True,0.6695354438675557,TlNiO3,6.348658840495298,6.348658840495298,0.0
1663,perov_1663.cif,0.36042208424500005,0.0018374654734000001,1.18,True,-0.0024491561660101822,NbNiN3,5.83476245963697,5.83476245963697,0.0
1664,perov_1664.cif,0.158742509501,0.0018374654734000001,2.8,True,1.6627032975046936,MnCaON2,5.041570953860775,5.041570953860775,0.0
1665,perov_1665.cif,0.14958813588300002,0.0036749309468000002,1.64,True,-0.004355606629360183,MgPbOFN,6.080680674285912,6.080680674285912,0.0
1666,perov_1666.cif,0.15708268968699998,0.0018374654734000001,1.38,True,-2.7134038792536876,CoAgO2S,5.8297019636838305,5.8297019636838305,0.0
1667,perov_1667.cif,0.140330553534,0.0018374654734000001,1.08,True,-8.418867468052572e-05,ZnHfON2,5.704211732777656,5.704211732777656,0.0
1668,perov_1668.cif,0.223630829161,0.0036749309468000002,2.28,True,2.145825960880388,TaTlOFN,6.631736523899662,6.631736523899662,0.0
1669,perov_1669.cif,0.188788591855,0.0018374654734000001,2.08,True,-0.002019815578779476,AgCaON2,5.223166735905621,5.223166735905621,0.0
1670,perov_1670.cif,0.304620116668,0.0018374654734000001,3.08,True,1.5565853746454017,ReAuN3,6.162893795876503,6.162893795876503,0.0
1671,perov_1671.cif,0.134327612153,0.0036749309468000002,1.54,True,1.2715629452054031,GeCdOFN,6.501122281611416,6.501122281611416,0.0
1672,perov_1672.cif,0.140457038451,0.0018374654734000001,0.82,True,0.9908863041858568,SnInO2S,5.425529101564496,5.425529101564496,0.0
1673,perov_1673.cif,0.218240589364,0.0018374654734000001,0.4,True,-3.167117070421784e-05,BaPbO3,5.366533747761364,5.366533747761364,0.0
1674,perov_1674.cif,0.215999902939,0.0036749309468000002,1.42,True,1.8426075492502283,WAsOFN,6.678850657558462,6.678850657558462,0.0
1675,perov_1675.cif,0.21446809706099998,0.0036749309468000002,1.58,True,2.9505365809632065,MoRhO2F,6.296725323990387,6.296725323990387,0.0
1676,perov_1676.cif,0.162595378127,0.0018374654734000001,1.0,True,0.006651332670333686,HgBiO2S,5.9673090724421085,5.9673090724421085,0.0
1677,perov_1677.cif,0.299420910993,0.0018374654734000001,1.16,True,-0.05491536781331309,ZrSbO3,5.962736395107224,5.962736395107224,0.0
1678,perov_1678.cif,0.305401252971,0.0018374654734000001,0.96,True,0.9265904308278808,NbFeO2S,5.644081449327098,5.644081449327098,0.0
1679,perov_1679.cif,0.34961063632600003,0.0036749309468000002,0.82,True,1.4427838202509025,YZrO2F,5.850413327019115,5.850413327019115,0.0
1680,perov_1680.cif,0.11755456066,0.0018374654734000001,2.6,True,-0.0009112369390222836,BHfON2,5.662589689152262,5.662589689152262,0.0
1681,perov_1681.cif,0.29949744295499997,0.0036749309468000002,1.44,True,-1.0995710993097832e-15,HfMgOFN,5.922610232974129,5.922610232974129,0.0
1682,perov_1682.cif,0.0793748229584,0.0018374654734000001,2.94,True,3.95137850287999,LiHgN3,5.7038493476353835,5.7038493476353835,0.0
1683,perov_1683.cif,0.263434676862,0.0018374654734000001,1.94,True,3.885388921576304,MnBaON2,5.244550919740535,5.244550919740535,0.0
1684,perov_1684.cif,0.21150941941799997,0.0036749309468000002,1.04,True,3.999102466175103,RuGaO2F,6.107741314637361,6.107741314637361,0.0
1685,perov_1685.cif,0.416140092605,0.0036749309468000002,1.1,True,1.444436777395144,HfAlO2F,5.7817594468797076,5.7817594468797076,0.0
1686,perov_1686.cif,0.11283009886499999,0.0018374654734000001,2.72,True,-0.11466362581663045,AgBaON2,5.4334579755888655,5.4334579755888655,0.0
1687,perov_1687.cif,0.27197489466499997,0.0018374654734000001,1.8,True,0.0002455668497844955,BiCdN3,5.874484417408934,5.874484417408934,0.0
1688,perov_1688.cif,0.404325952328,0.0018374654734000001,0.8,True,0.0010338431624301592,TaSiN3,5.956605091818105,5.956605091818105,0.0
1689,perov_1689.cif,0.338971017467,0.0036749309468000002,1.46,True,5.003152289976123e-12,PtSiOFN,6.8524906699063255,6.8524906699063255,0.0
1690,perov_1690.cif,0.27874029351,0.0018374654734000001,1.34,True,0.000339258801218989,ScIrO2S,5.750870818667138,5.750870818667138,0.0
1691,perov_1691.cif,0.208035240336,0.0018374654734000001,1.9,True,0.00018786246988611308,TiAgON2,5.7149597049985825,5.7149597049985825,0.0
1692,perov_1692.cif,0.269221751763,0.0018374654734000001,1.1,True,2.5755081952219943,NbGeO2S,5.786815446289696,5.786815446289696,0.0
1693,perov_1693.cif,0.310366826666,0.0018374654734000001,0.54,True,0.009506895118384763,NbTiON2,5.596913266783591,5.596913266783591,0.0
1694,perov_1694.cif,0.341934664988,0.0018374654734000001,0.48,True,2.9268747320801336,YMnO2N,5.468794411496477,5.468794411496477,0.0
1695,perov_1695.cif,0.195197653574,0.0018374654734000001,3.0,True,3.660537596281628,AsLiN3,5.721226209978116,5.721226209978116,0.0
1696,perov_1696.cif,0.151939513936,0.0018374654734000001,2.18,True,-4.508392940240526,RuYO2N,5.6810094541770795,5.6810094541770795,0.0
1697,perov_1697.cif,0.190704923436,0.0018374654734000001,0.62,True,-0.012560824321980716,PdTaON2,5.918362103790344,5.918362103790344,0.0
1698,perov_1698.cif,0.233796842054,0.0036749309468000002,1.68,True,8.201573975321821,OsFeO2F,6.512910571300802,6.512910571300802,0.0
1699,perov_1699.cif,0.16173204449,0.0018374654734000001,2.78,True,1.3211607251165558,SiTlO2N,6.40413874193617,6.40413874193617,0.0
1700,perov_1700.cif,0.17833609464699998,0.0018374654734000001,2.14,True,0.7444628705551607,HgAuON2,6.542474262125692,6.542474262125692,0.0
1701,perov_1701.cif,0.23377725437199998,0.0036749309468000002,1.74,True,1.1110365936405677,TeLiOFN,6.2342439331387896,6.2342439331387896,0.0
1702,perov_1702.cif,0.240170890722,0.0018374654734000001,2.24,True,2.4014731933858755,RbTeN3,5.478709671916606,5.478709671916606,0.0
1703,perov_1703.cif,0.36175287000100004,0.0018374654734000001,1.96,True,2.5349666434452462,MoTeN3,6.068034437043713,6.068034437043713,0.0
1704,perov_1704.cif,0.20338005191199998,0.0018374654734000001,2.56,True,0.0,CsBiN3,5.102439146379905,5.102439146379905,0.0
1705,perov_1705.cif,0.159747271373,0.0018374654734000001,0.94,True,-0.35793260868588994,AuLaO2S,5.7241712575561055,5.7241712575561055,0.0
1706,perov_1706.cif,0.1859934536,0.0018374654734000001,0.4,True,0.00014404956463565102,NiNbO2S,5.735596631053013,5.735596631053013,0.0
1707,perov_1707.cif,0.27719048294599996,0.0018374654734000001,2.0,True,1.4908791805758028,OsPdON2,6.130650151413171,6.130650151413171,0.0
1708,perov_1708.cif,0.141026519848,0.0018374654734000001,2.4,True,0.6299636735079801,LiBeON2,5.671857025010509,5.671857025010509,0.0
1709,perov_1709.cif,0.183151736079,0.0018374654734000001,0.6,False,-0.0001856157132436473,GeZrO2S,6.928686722110598,4.428686722110597,2.5
1710,perov_1710.cif,0.026719949577599995,0.0018374654734000001,1.74,True,1.2949967158984643,NaSrO2N,4.722803145154853,4.722803145154853,0.0
1711,perov_1711.cif,0.103842703421,0.0018374654734000001,1.14,True,2.0733390481900464,KPbO2N,5.2212906098100325,5.2212906098100325,0.0
1712,perov_1712.cif,0.0331780329464,0.0018374654734000001,2.62,True,0.0,KCsO2S,4.511572736892843,4.511572736892843,0.0
1713,perov_1713.cif,0.27745625364,0.0036749309468000002,0.42,True,2.463124004380654e-15,SrGeO2F,5.584260916267676,5.584260916267676,0.0
1714,perov_1714.cif,0.11341548346699999,0.0018374654734000001,1.68,True,3.9999935807645017,RhYO3,5.6692918342761995,5.6692918342761995,0.0
1715,perov_1715.cif,0.24662689377099997,0.0018374654734000001,3.12,True,1.3563641168027836,ZrCsO3,5.086113943862875,5.086113943862875,0.0
1716,perov_1716.cif,0.20395877103,0.0018374654734000001,2.34,True,1.9391305349803432,VLaON2,5.336231329882753,5.336231329882753,0.0
1717,perov_1717.cif,0.274443494634,0.0018374654734000001,1.08,True,-1.0035747185238124,PtWO2N,6.3224651912212035,6.3224651912212035,0.0
1718,perov_1718.cif,0.212807848789,0.0018374654734000001,1.74,True,-2.4903422533781487,CrBiN3,5.672801652363479,5.672801652363479,0.0
1719,perov_1719.cif,0.34583841790200004,0.0036749309468000002,1.24,True,2.6892359687176506,ZrTaO2F,6.151558868929709,6.151558868929709,0.0
1720,perov_1720.cif,0.287409220184,0.0036749309468000002,1.68,True,3.8173293585512202,OsGeO2F,6.677616514340046,6.677616514340046,0.0
1721,perov_1721.cif,0.15605769117499999,0.0018374654734000001,1.72,True,-0.6143894429944223,TiKO3,5.1333854809651704,5.1333854809651704,0.0
1722,perov_1722.cif,0.28285594558000005,0.0036749309468000002,1.42,True,1.8125568910159264,MoOsOFN,6.415503061274356,6.415503061274356,0.0
1723,perov_1723.cif,0.137231646466,0.0018374654734000001,1.36,True,0.9966251569902944,BeSnO2N,6.1341978547779386,6.1341978547779386,0.0
1724,perov_1724.cif,0.0665423117547,0.0036749309468000002,1.62,True,1.9998772434351901,PbKO2F,5.609977634518912,5.609977634518912,0.0
1725,perov_1725.cif,0.294219880069,0.0018374654734000001,1.84,True,4.3391291063867845,MnTeN3,6.010958137326906,6.010958137326906,0.0
1726,perov_1726.cif,0.18433910181,0.0018374654734000001,0.66,True,-0.005905656217104643,RhNbO2S,5.7092854448996455,5.7092854448996455,0.0
1727,perov_1727.cif,0.243504257414,0.0018374654734000001,1.76,True,-9.849015432553666e-05,SrPdON2,5.126851767891702,5.126851767891702,0.0
1728,perov_1728.cif,0.257286897964,0.0036749309468000002,1.78,True,5.40162398668721e-16,ScPdOFN,6.103477091791429,6.103477091791429,0.0
1729,perov_1729.cif,0.198355086108,0.0018374654734000001,1.04,True,-3.460543782673674,FeTeO2S,6.013062847269553,6.013062847269553,0.0
1730,perov_1730.cif,0.197880333518,0.0018374654734000001,1.52,True,1.3817389826885145,CaTlO2N,5.488123524127178,5.488123524127178,0.0
1731,perov_1731.cif,0.182957954467,0.0036749309468000002,0.2,True,0.9967690319182978,BaMgO2F,5.683833517602171,5.683833517602171,0.0
1732,perov_1732.cif,0.303756366336,0.0018374654734000001,2.28,True,0.3714619369134997,AgBN3,5.9277338910003765,5.9277338910003765,0.0
1733,perov_1733.cif,0.265770444163,0.0036749309468000002,0.52,True,0.0,SrFeO2F,5.446523003583429,5.446523003583429,0.0
1734,perov_1734.cif,0.19581367883,0.0018374654734000001,0.98,True,3.000161452783305,CrLiO2S,5.239597840985276,5.239597840985276,0.0
1735,perov_1735.cif,0.283973169187,0.0036749309468000002,0.64,True,0.9949798847186776,BaAlOFN,5.471217610333032,5.471217610333032,0.0
1736,perov_1736.cif,0.152212703706,0.0036749309468000002,1.6,True,0.9864181904282726,AsLiO2F,6.234140838677112,6.234140838677112,0.0
1737,perov_1737.cif,0.07984984084480001,0.0018374654734000001,1.16,True,0.9529242838749088,LiMgO2S,5.2480216752386974,5.2480216752386974,0.0
1738,perov_1738.cif,0.265999270279,0.0018374654734000001,1.84,True,4.375758431848368,SrNiN3,5.079455745936043,5.079455745936043,0.0
1739,perov_1739.cif,0.195698957621,0.0018374654734000001,0.88,True,0.8289698299915074,CaZnO3,5.299483253131587,5.299483253131587,0.0
1740,perov_1740.cif,0.35430087138300004,0.0018374654734000001,1.54,True,-0.05357938968028931,HfZnO2N,5.744440701080495,5.744440701080495,0.0
1741,perov_1741.cif,0.35023620186800003,0.0018374654734000001,0.96,False,-0.0011991402913786046,TaBeO2N,6.2860432981291545,5.8660432981291555,0.4
1742,perov_1742.cif,0.336010998555,0.0018374654734000001,2.02,True,1.0953882567354116,PtBO3,6.334895908505082,6.334895908505082,0.0
1743,perov_1743.cif,0.323251705554,0.0018374654734000001,1.18,True,0.8012723739223909,TiCoN3,5.6386891916833095,5.6386891916833095,0.0
1744,perov_1744.cif,0.167805801151,0.0018374654734000001,2.12,True,-0.00045027513353869495,TlCdON2,6.268562693602258,6.268562693602258,0.0
1745,perov_1745.cif,0.171878873324,0.0018374654734000001,1.18,True,1.070890319294744,SbCdO2S,5.969049224693867,5.969049224693867,0.0
1746,perov_1746.cif,0.279881693795,0.0018374654734000001,1.7,True,0.9494240919733627,ZrPbN3,5.586384750452508,5.586384750452508,0.0
1747,perov_1747.cif,0.20396952870499999,0.0036749309468000002,0.54,True,2.551055400062795e-15,CsSbO2F,5.747054386877204,5.747054386877204,0.0
1748,perov_1748.cif,0.164956289024,0.0036749309468000002,1.56,True,1.8890183064245925,PdCuOFN,6.472672423704837,6.472672423704837,0.0
1749,perov_1749.cif,0.19566281412300002,0.0018374654734000001,1.86,True,0.004333412173345153,CoLiN3,5.4869074742809065,5.4869074742809065,0.0
1750,perov_1750.cif,0.251521146602,0.0018374654734000001,0.96,True,0.6067016324756339,GaNiO2S,5.485252175894864,5.485252175894864,0.0
1751,perov_1751.cif,0.30928963477,0.0018374654734000001,1.26,True,1.3901038495166809,BaSbN3,5.4915627823468265,5.4915627823468265,0.0
1752,perov_1752.cif,0.264875974833,0.0018374654734000001,0.46,True,0.002028193069804729,InAlO3,5.316800086108201,5.316800086108201,0.0
1753,perov_1753.cif,0.20500953322700002,0.0036749309468000002,1.82,True,-6.986453546901677e-15,SiRuOFN,6.566287840847738,6.566287840847738,0.0
1754,perov_1754.cif,0.178732653341,0.0018374654734000001,0.64,True,0.9976340358629976,AgNbO2N,5.928071934065594,5.928071934065594,0.0
1755,perov_1755.cif,0.36572822976999997,0.0018374654734000001,2.06,True,0.472487008783073,IrAsON2,6.46154219827819,6.46154219827819,0.0
1756,perov_1756.cif,0.220201617551,0.0018374654734000001,0.18,True,-3.9851690162477236,MnNbO2N,5.721968450620488,5.721968450620488,0.0
1757,perov_1757.cif,0.259716562179,0.0036749309468000002,1.12,True,0.7428218863619626,CaRuOFN,5.62707964609957,5.62707964609957,0.0
1758,perov_1758.cif,0.229870692015,0.0018374654734000001,1.72,True,0.044393907547906515,CuPtN3,6.256728189211485,6.256728189211485,0.0
1759,perov_1759.cif,0.27486685882,0.0018374654734000001,1.34,True,0.047689691628264086,TaPtO2S,6.042322171898121,6.042322171898121,0.0
1760,perov_1760.cif,0.0585237502511,0.0018374654734000001,2.98,True,-7.765774788555524e-05,NaNaON2,5.033970933665379,5.033970933665379,0.0
1761,perov_1761.cif,0.139955570353,0.0018374654734000001,1.52,True,0.011880923030584968,MgTlO3,6.148903936254657,6.148903936254657,0.0
1762,perov_1762.cif,0.190622290624,0.0036749309468000002,0.4,True,3.715193085302208e-15,TlTeO2F,7.080062217564928,7.080062217564928,0.0
1763,perov_1763.cif,0.267863775682,0.0036749309468000002,0.88,True,-7.456154228020349e-06,BiScOFN,6.007221989351603,6.007221989351603,0.0
1764,perov_1764.cif,-0.0314748167765,0.0036749309468000002,1.54,True,0.0,CsRbO2F,4.967525793541801,4.967525793541801,0.0
1765,perov_1765.cif,0.340951605656,0.0018374654734000001,1.26,True,0.0003226583806750228,YBON2,5.5875619935903655,5.5875619935903655,0.0
1766,perov_1766.cif,0.09113685455579999,0.0018374654734000001,1.64,True,0.12356412557804575,HgKO3,5.576659903117044,5.576659903117044,0.0
1767,perov_1767.cif,0.170538229764,0.0018374654734000001,0.52,True,0.9999969392043192,MgVO2S,5.439297601519869,5.439297601519869,0.0
1768,perov_1768.cif,0.255629706026,0.0018374654734000001,1.36,True,-0.2842759014973439,TaLaO2N,5.515476424740122,5.515476424740122,0.0
1769,perov_1769.cif,0.23393571072799998,0.0036749309468000002,1.32,True,4.344177351856016,FeNiOFN,6.332158327849606,6.332158327849606,0.0
1770,perov_1770.cif,0.280660822471,0.0018374654734000001,0.96,True,1.9884302522791268,PbVN3,5.574052654961577,5.574052654961577,0.0
1771,perov_1771.cif,0.38683703758599997,0.0018374654734000001,0.58,False,-5.473994095742051e-06,ZrBeO3,8.034980310152196,3.9149803101521976,4.1
1772,perov_1772.cif,0.198726476283,0.0018374654734000001,0.9,True,2.503172688072581,VMgO2S,5.439297601519869,5.439297601519869,0.0
1773,perov_1773.cif,0.197184085133,0.0018374654734000001,1.94,True,0.001288917041769366,SrCsO2N,4.480429981844033,4.480429981844033,0.0
1774,perov_1774.cif,0.078572380384,0.0018374654734000001,1.28,True,0.0,CsCaO3,4.598861652055598,4.598861652055598,0.0
1775,perov_1775.cif,0.183674665534,0.0018374654734000001,1.06,True,-0.870316397641729,CdHfON2,5.699075108745268,5.699075108745268,0.0
1776,perov_1776.cif,0.189760151054,0.0018374654734000001,1.96,True,0.0036715733462209243,AsTlON2,6.497441864937443,6.497441864937443,0.0
1777,perov_1777.cif,0.151688345605,0.0018374654734000001,1.16,True,0.0038239766703789257,SrPbO2S,4.87160409449471,4.87160409449471,0.0
1778,perov_1778.cif,0.167030444238,0.0036749309468000002,0.7,True,3.070083525067655,CrZnO2F,6.280420558442647,6.280420558442647,0.0
1779,perov_1779.cif,0.158706125961,0.0036749309468000002,0.94,True,0.9496462289668166,CuHfOFN,6.137090136832691,6.137090136832691,0.0
1780,perov_1780.cif,0.29325743091400003,0.0018374654734000001,1.72,True,2.8715584636030935,ReTaN3,5.7558079191987686,5.7558079191987686,0.0
1781,perov_1781.cif,0.323828660573,0.0018374654734000001,1.12,True,0.004012272442011522,YNiON2,5.615926710561848,5.615926710561848,0.0
1782,perov_1782.cif,0.25956120139,0.0018374654734000001,1.1,True,0.00016194251378109922,HgSbO2N,6.363665172848159,6.363665172848159,0.0
1783,perov_1783.cif,0.263070684894,0.0018374654734000001,1.68,True,0.6299703209538163,WCdN3,5.955139331457213,5.955139331457213,0.0
1784,perov_1784.cif,0.23013657515500002,0.0036749309468000002,1.38,True,-0.00011554276182696168,TeRhO2F,6.742427672663608,6.742427672663608,0.0
1785,perov_1785.cif,0.156879173466,0.0018374654734000001,2.48,True,3.5296089358778238,AuMgON2,6.123703797156303,6.123703797156303,0.0
1786,perov_1786.cif,0.112366112726,0.0018374654734000001,1.74,True,2.0000000154562017,CrCaO3,5.112933095396412,5.112933095396412,0.0