,id,fermi level,fermi width,e_form,gap is direct,mu_b,formula,vbm,cbm,gap gllbsc
6063,perov_6063.cif,0.337541144985,0.0018374654734000001,1.32,True,-2.176145358143239,TaWO3,5.9885860230761585,5.9885860230761585,0.0
6064,perov_6064.cif,0.243429476357,0.0018374654734000001,0.66,True,-3.2632355850679864e-05,GaGeO3,5.749876910710813,5.749876910710813,0.0
6065,perov_6065.cif,0.289565802899,0.0018374654734000001,1.42,True,0.0001901259774648168,IrAlON2,5.844966380120231,5.844966380120231,0.0
6066,perov_6066.cif,0.197372313906,0.0018374654734000001,1.06,False,6.72704044446124e-05,MgTeO2S,6.268297465079535,5.568297465079536,0.7
6067,perov_6067.cif,0.171657352029,0.0036749309468000002,1.32,True,1.8197977174584996,PtScO2F,6.4287785908277515,6.4287785908277515,0.0
6068,perov_6068.cif,0.21966331838300002,0.0018374654734000001,1.64,True,-0.16975443778075494,KMnON2,5.13859536419074,5.13859536419074,0.0
6069,perov_6069.cif,0.20887722087000002,0.0018374654734000001,1.08,True,0.0014228605513100234,AgMoN3,5.815809358203884,5.815809358203884,0.0
6070,perov_6070.cif,0.179748387383,0.0036749309468000002,1.06,True,2.1269214251549062,CoTeO2F,6.742427672663608,6.742427672663608,0.0
6071,perov_6071.cif,0.22585132268599997,0.0018374654734000001,1.02,True,0.8535030719840967,RuScO2S,5.557351460967814,5.557351460967814,0.0
6072,perov_6072.cif,0.21554307268800002,0.0018374654734000001,1.22,True,2.2579206869717035,GeZrN3,5.776868604535518,5.776868604535518,0.0
6073,perov_6073.cif,0.18837931500500002,0.0018374654734000001,1.08,True,3.0009717972517014,MnSnON2,5.7646778000203325,5.7646778000203325,0.0
6074,perov_6074.cif,0.201524771426,0.0018374654734000001,1.48,True,2.265185228449422,CdZnO2N,6.053096813493072,6.053096813493072,0.0
6075,perov_6075.cif,0.163273566786,0.0018374654734000001,1.44,True,0.9948393823463276,AgSnON2,5.9723196606450655,5.9723196606450655,0.0
6076,perov_6076.cif,0.244210401239,0.0036749309468000002,0.52,True,2.5657892921744825,CaCoO2F,5.615473261534149,5.615473261534149,0.0
6077,perov_6077.cif,0.243654381499,0.0018374654734000001,0.88,True,0.0038378138876211674,SbBiO3,6.109331593978912,6.109331593978912,0.0
6078,perov_6078.cif,0.0102734377625,0.0036749309468000002,2.7,True,0.0,CdKOFN,5.717416645902087,5.717416645902087,0.0
6079,perov_6079.cif,0.24386986649599998,0.0018374654734000001,1.14,True,1.9986291137548515,PtTiO3,6.064735205985589,6.064735205985589,0.0
6080,perov_6080.cif,0.261170367469,0.0018374654734000001,1.18,True,0.6693878729408721,IrTaN3,6.095167842340323,6.095167842340323,0.0
6081,perov_6081.cif,0.336323281323,0.0018374654734000001,1.18,True,2.112762940598145e-05,BiTeO2N,6.218815980758665,6.218815980758665,0.0
6082,perov_6082.cif,0.18595123354,0.0018374654734000001,1.76,True,1.9477784193889158,ReNaO2S,5.261067985428073,5.261067985428073,0.0
6083,perov_6083.cif,0.0971369532301,0.0018374654734000001,1.9,True,1.6102151084474798,RbCsO2N,4.623351013062137,4.623351013062137,0.0
6084,perov_6084.cif,0.23858429648,0.0018374654734000001,3.2,True,0.0,HfKO2N,5.085560458019637,5.085560458019637,0.0
6085,perov_6085.cif,0.34951561493699995,0.0018374654734000001,0.6,True,0.7593820005475889,HfVON2,5.4674413819522645,5.4674413819522645,0.0
6086,perov_6086.cif,0.0930384635894,0.0018374654734000001,1.44,True,1.092548057568926,RbPbO2S,5.027003170854108,5.027003170854108,0.0
6087,perov_6087.cif,0.17132662992199998,0.0018374654734000001,1.98,True,4.995453846290322,InInN3,5.169699792003841,5.169699792003841,0.0
6088,perov_6088.cif,0.171439275073,0.0018374654734000001,2.24,True,-0.8372834226380497,TiCdO2S,5.575972608729954,5.575972608729954,0.0
6089,perov_6089.cif,0.25924877037300004,0.0018374654734000001,1.94,True,0.5802444945471237,PtPdN3,6.2483261067086255,6.2483261067086255,0.0
6090,perov_6090.cif,0.271768253743,0.0036749309468000002,1.14,True,0.6488701111360022,CsOsO2F,5.75650294491996,5.75650294491996,0.0
6091,perov_6091.cif,0.159236327256,0.0036749309468000002,1.52,True,-0.008557879876085472,BeHfOFN,6.2480732891064426,6.2480732891064426,0.0
6092,perov_6092.cif,0.0933804433231,0.0036749309468000002,0.54,True,0.9965867828034441,KGaO2F,5.395121197526853,5.395121197526853,0.0
6093,perov_6093.cif,0.251149490344,0.0018374654734000001,1.56,True,-0.4898134757357147,ScBiO3,5.670151246130388,5.670151246130388,0.0
6094,perov_6094.cif,0.148565226128,0.0018374654734000001,2.64,True,5.367017642173507,CoCdON2,5.969626999649033,5.969626999649033,0.0
6095,perov_6095.cif,0.147897155921,0.0018374654734000001,1.06,True,1.4673674408882706,CuRuO2S,5.893512011148441,5.893512011148441,0.0
6096,perov_6096.cif,0.277350507634,0.0018374654734000001,1.14,True,1.8516151337963718,BiHfN3,5.5749360079627355,5.5749360079627355,0.0
6097,perov_6097.cif,0.25039740492400003,0.0036749309468000002,0.76,True,-0.11924553841381988,BaAsOFN,6.048367290078826,6.048367290078826,0.0
6098,perov_6098.cif,0.20921734811,0.0018374654734000001,1.02,True,0.582402396059031,PbNiO2S,5.7036980078542925,5.7036980078542925,0.0
6099,perov_6099.cif,0.057859102717500006,0.0018374654734000001,2.6,True,-0.665766736858881,HgKO2N,5.5376059227293615,5.5376059227293615,0.0
6100,perov_6100.cif,0.189412220555,0.0036749309468000002,1.48,True,2.6562615109561394,SiCoO2F,6.5527442504525055,6.5527442504525055,0.0
6101,perov_6101.cif,0.231133028936,0.0018374654734000001,1.06,True,-0.2769337221096907,HgVON2,5.953431490747514,5.953431490747514,0.0
6102,perov_6102.cif,0.19831719364999997,0.0018374654734000001,2.32,True,1.336271529243643,ReKON2,5.216325784078735,5.216325784078735,0.0
6103,perov_6103.cif,0.307527542001,0.0018374654734000001,1.46,True,-4.233446945754172,ReVO2N,5.687406203165258,5.687406203165258,0.0
6104,perov_6104.cif,0.27471466623199997,0.0018374654734000001,0.58,True,2.337247380141384,TiMnO3,5.594346895663059,5.594346895663059,0.0
6105,perov_6105.cif,0.186386707879,0.0018374654734000001,1.6,True,-0.001110285516008976,RbTiON2,5.027820334342991,5.027820334342991,0.0
6106,perov_6106.cif,0.304932188564,0.0018374654734000001,1.1,True,1.4210866675501068,PdReN3,5.850884476775918,5.850884476775918,0.0
6107,perov_6107.cif,0.263235128829,0.0018374654734000001,3.26,True,2.114995957891366,ReHgN3,6.040649284299443,6.040649284299443,0.0
6108,perov_6108.cif,0.23883021472,0.0018374654734000001,1.64,True,0.9700738366329826,MoCaON2,5.089442559057827,5.089442559057827,0.0
6109,perov_6109.cif,0.270102988169,0.0018374654734000001,1.26,True,-0.2740381252697562,CoFeN3,5.825316741460862,5.825316741460862,0.0
6110,perov_6110.cif,0.126066518024,0.0018374654734000001,1.16,True,0.8434694815992838,RbGeO2S,5.198413301241965,5.198413301241965,0.0
6111,perov_6111.cif,0.250658100406,0.0018374654734000001,1.42,True,-1.1104350278733626,OsGaO2N,5.7798509646677605,5.7798509646677605,0.0
6112,perov_6112.cif,0.19301208069000003,0.0018374654734000001,4.86,True,-0.0733915324994357,IrRbN3,5.448438704506185,5.448438704506185,0.0
6113,perov_6113.cif,0.33434724899999996,0.0018374654734000001,1.5,True,0.0013508756665494561,ZrZnN3,5.738692118750496,5.738692118750496,0.0
6114,perov_6114.cif,0.370613341747,0.0018374654734000001,1.94,True,-0.6598817424590548,ZrTeO2N,6.069593671996733,6.069593671996733,0.0
6115,perov_6115.cif,0.173745644256,0.0018374654734000001,2.04,True,4.047960885440386,ZnGaN3,5.592714430302227,5.592714430302227,0.0
6116,perov_6116.cif,0.134295504044,0.0036749309468000002,1.42,True,-3.520960228899529e-15,GeHgO2F,6.765405050976742,6.765405050976742,0.0
6117,perov_6117.cif,0.304787699299,0.0018374654734000001,0.92,True,0.6148442523066642,InOsO3,5.783771092470047,5.783771092470047,0.0
6118,perov_6118.cif,0.273252697047,0.0018374654734000001,1.18,True,0.008911082514295288,ZnOsO2N,6.173886577789108,6.173886577789108,0.0
6119,perov_6119.cif,0.232731956851,0.0018374654734000001,0.8,True,0.7018445032608174,RuWN3,5.973841348637799,5.973841348637799,0.0
6120,perov_6120.cif,0.138101822304,0.0036749309468000002,1.02,True,1.9533037556074824,AgRhO2F,6.4621706357345365,6.4621706357345365,0.0
6121,perov_6121.cif,0.32542875138,0.0018374654734000001,0.86,True,-2.180347711135746,NbGeO3,6.012298720370548,6.012298720370548,0.0
6122,perov_6122.cif,0.283826183416,0.0018374654734000001,1.72,True,2.975849317727907,TlGeN3,6.2717202981331965,6.2717202981331965,0.0
6123,perov_6123.cif,0.21715126240200003,0.0018374654734000001,1.58,True,-0.5033141581534779,CaBiON2,5.143108189091703,5.143108189091703,0.0
6124,perov_6124.cif,0.23806830075,0.0018374654734000001,1.36,True,0.3712424567118937,TaInON2,5.505564686973113,5.505564686973113,0.0
6125,perov_6125.cif,0.164763399034,0.0018374654734000001,0.68,True,-0.00030532258778471756,CaPbO3,5.158832677892247,5.158832677892247,0.0
6126,perov_6126.cif,0.198809652573,0.0036749309468000002,1.1,True,2.717808870071792,VAsOFN,6.416108468764733,6.416108468764733,0.0
6127,perov_6127.cif,0.206398230093,0.0036749309468000002,1.2,True,4.361273626715092,MnRhO2F,6.2374979439293075,6.2374979439293075,0.0
6128,perov_6128.cif,0.218384518827,0.0018374654734000001,1.2,True,0.044921881876160086,ZnCrN3,5.763698260668777,5.763698260668777,0.0
6129,perov_6129.cif,0.224355600093,0.0018374654734000001,1.56,True,0.002618090181819354,HfBiO2S,5.480186109855218,5.480186109855218,0.0
6130,perov_6130.cif,0.209608902437,0.0018374654734000001,1.96,True,-6.76331648890027e-05,SiBiON2,6.0015373675412365,6.0015373675412365,0.0
6131,perov_6131.cif,0.336294268114,0.0018374654734000001,0.48,False,7.695933708574441e-05,PbSiO3,7.744886409337032,4.29488640933703,3.5
6132,perov_6132.cif,0.315215222716,0.0018374654734000001,1.46,True,-0.14151859171833947,TlIrON2,6.507219850298648,6.507219850298648,0.0
6133,perov_6133.cif,0.274939878455,0.0018374654734000001,1.0,True,0.005141245396426797,SbIrO2S,6.196303283682567,6.196303283682567,0.0
6134,perov_6134.cif,0.322115740731,0.0018374654734000001,1.4,True,0.6157112321320906,PdSiON2,6.097701383975641,6.097701383975641,0.0
6135,perov_6135.cif,0.116817269598,0.0036749309468000002,1.48,True,-1.0718028506075958,HgMgOFN,6.449059405520572,6.449059405520572,0.0
6136,perov_6136.cif,0.210404825671,0.0018374654734000001,3.16,True,3.0424434813129984,MoBaON2,5.2943498957667225,5.2943498957667225,0.0
6137,perov_6137.cif,0.22207656361699998,0.0036749309468000002,0.62,True,-3.850154805126025e-15,HgAlO2F,6.2956886701343535,6.2956886701343535,0.0
6138,perov_6138.cif,0.13631354592599998,0.0018374654734000001,1.14,True,3.8114574785218815,RbFeO2S,5.0701924662703695,5.0701924662703695,0.0
6139,perov_6139.cif,0.12183764415300001,0.0018374654734000001,2.68,True,2.8765583542418813,LiAuN3,5.8192780449151815,5.8192780449151815,0.0
6140,perov_6140.cif,0.23177409452599998,0.0036749309468000002,0.52,True,2.544271504462309e-15,PtTaOFN,6.650952308672862,6.650952308672862,0.0
6141,perov_6141.cif,0.224883582144,0.0036749309468000002,1.62,True,0.0,CoNiOFN,6.405311422339941,6.405311422339941,0.0
6142,perov_6142.cif,0.20543657103000001,0.0018374654734000001,0.68,True,1.9988766370461464,SrGaO2N,4.833490478905716,4.833490478905716,0.0
6143,perov_6143.cif,0.132432603013,0.0018374654734000001,1.6,True,-0.5287129200407068,CdLiO2N,5.59781983968912,5.59781983968912,0.0
6144,perov_6144.cif,0.379683765594,0.0018374654734000001,1.68,True,0.4174017670530646,VBN3,5.6842426004161,5.6842426004161,0.0
6145,perov_6145.cif,0.229109479321,0.0018374654734000001,2.3,True,0.0008879848755594111,BOsO2N,6.1288374476871565,6.1288374476871565,0.0
6146,perov_6146.cif,0.21163826405900002,0.0018374654734000001,0.72,True,2.5746629249349082,AsCrO2S,5.867320733600888,5.867320733600888,0.0
6147,perov_6147.cif,0.174640839454,0.0036749309468000002,2.06,True,1.9999058657759683,TaCaO2F,5.562236413680721,5.562236413680721,0.0
6148,perov_6148.cif,0.213558505184,0.0036749309468000002,0.32,True,6.999991515676781,CrCrO2F,6.0593398624845305,6.0593398624845305,0.0
6149,perov_6149.cif,0.31051099086399997,0.0036749309468000002,1.04,True,0.9619567604202144,ScZrOFN,5.863076940314932,5.863076940314932,0.0
6150,perov_6150.cif,0.15470119459599999,0.0018374654734000001,1.68,True,0.2615269987975726,BAlO2S,5.46095417651143,5.46095417651143,0.0
6151,perov_6151.cif,0.34235992808300003,0.0036749309468000002,0.46,True,-0.024101685230253425,CaHfO2F,5.360972116099616,5.360972116099616,0.0
6152,perov_6152.cif,0.273294223129,0.0018374654734000001,1.5,True,0.44770460904023857,IrAsO3,6.553003667949445,6.553003667949445,0.0
6153,perov_6153.cif,0.161219614915,0.0018374654734000001,0.98,True,1.9999062079475531,NiHfO3,5.771894665536238,5.771894665536238,0.0
6154,perov_6154.cif,0.281690921024,0.0036749309468000002,0.42,True,0.5791636934118785,GeTiO2F,6.227640319633014,6.227640319633014,0.0
6155,perov_6155.cif,0.23613013961800003,0.0018374654734000001,1.06,True,-0.008391616655209669,SrZrON2,4.924918357957828,4.924918357957828,0.0
6156,perov_6156.cif,0.278618236568,0.0018374654734000001,0.7,True,1.9999999872958405,TiZrO3,5.570075494544151,5.570075494544151,0.0
6157,perov_6157.cif,0.113732814626,0.0018374654734000001,2.76,True,0.0,FeBaO3,5.412640106463743,5.412640106463743,0.0
6158,perov_6158.cif,0.0685681375426,0.0018374654734000001,1.42,True,2.9998594569416293,LiInO2N,5.212073249032813,5.212073249032813,0.0
6159,perov_6159.cif,0.193621538048,0.0036749309468000002,2.0,True,2.004723372705902,BeCoOFN,6.5446877415601525,6.5446877415601525,0.0
6160,perov_6160.cif,0.12141621930400001,0.0018374654734000001,3.6,True,0.0,RbKN3,4.650791726339183,4.650791726339183,0.0
6161,perov_6161.cif,0.0996656023697,0.0018374654734000001,2.72,True,0.0,RbHgON2,5.461979070649363,5.461979070649363,0.0
6162,perov_6162.cif,0.158717267311,0.0018374654734000001,2.98,True,4.266130080717069,TeCaN3,5.411524781216488,5.411524781216488,0.0
6163,perov_6163.cif,0.255687151611,0.0036749309468000002,1.8,True,3.0398765077377643,NbTeOFN,6.599066281505847,6.599066281505847,0.0
6164,perov_6164.cif,0.191912383149,0.0036749309468000002,1.12,True,4.000010963028738,MoInO2F,5.897845567506169,5.897845567506169,0.0
6165,perov_6165.cif,0.19820508019900002,0.0018374654734000001,3.5,True,0.0007865638994140056,CaCsN3,4.502917660904761,4.502917660904761,0.0
6166,perov_6166.cif,0.19617599438000002,0.0018374654734000001,1.6,True,1.9999986116757853,HgBeO3,6.4217042789876935,6.4217042789876935,0.0
6167,perov_6167.cif,0.261010145877,0.0036749309468000002,1.5,True,2.4989838216579248,CoBOFN,6.372959709973898,6.372959709973898,0.0
6168,perov_6168.cif,0.202323252111,0.0018374654734000001,0.94,True,0.5961356576294783,SnRhO2S,5.79246541789554,5.79246541789554,0.0
6169,perov_6169.cif,0.196108381387,0.0036749309468000002,0.9,True,-0.3466886939079238,PdVOFN,6.1956735349805845,6.1956735349805845,0.0
6170,perov_6170.cif,0.231196070466,0.0018374654734000001,0.42,True,0.23222705914750455,TlTaO2N,6.215786843431625,6.215786843431625,0.0
6171,perov_6171.cif,0.200150345686,0.0018374654734000001,1.38,True,-0.19920542467505584,GeCuO2N,6.10705796045139,6.10705796045139,0.0
6172,perov_6172.cif,0.26804581266,0.0018374654734000001,1.06,True,0.003739247886956677,SiWO2N,6.1268436600941705,6.1268436600941705,0.0
6173,perov_6173.cif,0.163051151978,0.0018374654734000001,1.2,True,0.4372268248504767,GePdO2S,5.91152643444595,5.91152643444595,0.0
6174,perov_6174.cif,0.150482565704,0.0036749309468000002,2.44,True,0.0,IrLaOFN,6.2039124916728765,6.2039124916728765,0.0
6175,perov_6175.cif,0.25059245229000005,0.0018374654734000001,1.78,True,1.992956468088863,TaMgN3,5.67915433897675,5.67915433897675,0.0
6176,perov_6176.cif,0.194722046532,0.0018374654734000001,1.16,True,0.9761248838842852,ZnAlO2S,5.5010941275671215,5.5010941275671215,0.0
6177,perov_6177.cif,0.104852238138,0.0036749309468000002,2.68,True,2.0018338418588897,TaBaO2F,5.786179023592713,5.786179023592713,0.0
6178,perov_6178.cif,0.0312939361649,0.0036749309468000002,2.72,True,0.0,NaCsOFN,5.131139456619566,5.131139456619566,0.0
6179,perov_6179.cif,0.267453315689,0.0018374654734000001,0.42,True,0.016452705327091977,MgMoO3,5.742435960741017,5.742435960741017,0.0
6180,perov_6180.cif,0.324733794591,0.0018374654734000001,1.28,True,-0.0033062038746994875,PtReON2,6.162723361785135,6.162723361785135,0.0
6181,perov_6181.cif,0.39060187433700005,0.0018374654734000001,0.76,False,1.6226363555175487e-05,HfBeO3,7.517488158243474,4.277488158243473,3.2
6182,perov_6182.cif,0.276640521619,0.0018374654734000001,1.78,True,0.005085098247221254,RhBeN3,6.0485817343725286,6.0485817343725286,0.0
6183,perov_6183.cif,0.274279893633,0.0036749309468000002,1.66,True,7.969395854056034,ReMnOFN,6.1079220487424735,6.1079220487424735,0.0
6184,perov_6184.cif,0.182142217047,0.0036749309468000002,1.06,True,1.6607100344731478,SnZnOFN,6.419803225332173,6.419803225332173,0.0
6185,perov_6185.cif,0.240740857602,0.0036749309468000002,0.94,True,9.016601890742726e-16,SiHfO2F,6.255764665685662,6.255764665685662,0.0
6186,perov_6186.cif,0.262329069252,0.0018374654734000001,0.94,True,0.0016298849573352927,OsZrON2,5.88917972351048,5.88917972351048,0.0
6187,perov_6187.cif,0.243379545157,0.0036749309468000002,0.9,True,1.3915415187059242e-09,AsWO2F,6.725953269451073,6.725953269451073,0.0
6188,perov_6188.cif,0.182459984775,0.0018374654734000001,3.84,True,3.666601875404503,SbKN3,5.380616851161375,5.380616851161375,0.0
6189,perov_6189.cif,0.27513276815000004,0.0018374654734000001,1.02,True,0.002070054935387589,TeSnO3,6.3195353237416745,6.3195353237416745,0.0
6190,perov_6190.cif,0.205958890117,0.0018374654734000001,2.14,True,3.2736586076160066,KAsN3,5.476951480956213,5.476951480956213,0.0
6191,perov_6191.cif,0.30749514419,0.0018374654734000001,0.48,True,0.0011965389491450649,YTiO2S,5.22153295145262,5.22153295145262,0.0
6192,perov_6192.cif,0.127058838936,0.0036749309468000002,0.54,True,0.0,CsYO2F,5.285122962520147,5.285122962520147,0.0
6193,perov_6193.cif,0.215440076364,0.0018374654734000001,0.66,True,1.4271785654118505,BaZnO3,5.51284709145608,5.51284709145608,0.0
6194,perov_6194.cif,0.18405722418200002,0.0018374654734000001,1.74,True,2.5027368536807697,HgZnO2N,6.255052734435138,6.255052734435138,0.0
6195,perov_6195.cif,0.326926595358,0.0018374654734000001,0.78,True,-0.0001543467429474532,YGeON2,5.666076874716297,5.666076874716297,0.0
6196,perov_6196.cif,0.24021143489900001,0.0018374654734000001,2.04,True,-2.8300481476917292e-05,AuCdN3,6.2869000276981,6.2869000276981,0.0
6197,perov_6197.cif,0.19964049343600002,0.0036749309468000002,0.88,True,4.726979960986316,CrSbO2F,6.389473482546142,6.389473482546142,0.0
6198,perov_6198.cif,0.268076541247,0.0018374654734000001,0.16,False,3.6279287617615376e-05,SrGeO3,5.854010037723147,4.614010037723147,1.2
6199,perov_6199.cif,0.200207754894,0.0018374654734000001,2.34,True,2.997798301777891,AgLaN3,5.525844113695763,5.525844113695763,0.0
6200,perov_6200.cif,0.26632859986900004,0.0018374654734000001,2.34,True,1.2921809272979952,PtCuON2,6.300853781281803,6.300853781281803,0.0
6201,perov_6201.cif,0.270275866343,0.0018374654734000001,1.5,True,0.583641934470908,CaSbN3,5.279022711090838,5.279022711090838,0.0
6202,perov_6202.cif,0.168457521011,0.0018374654734000001,2.4,True,0.5644937160894888,BRuO3,6.0703110709411074,6.0703110709411074,0.0
6203,perov_6203.cif,0.138909025723,0.0018374654734000001,0.98,True,0.7772752448678196,InYO3,5.310158216413228,5.310158216413228,0.0
6204,perov_6204.cif,0.33896841486999996,0.0018374654734000001,0.66,True,0.0011060845754471416,GeReO2N,5.9731760283751925,5.9731760283751925,0.0
6205,perov_6205.cif,0.26487511911600004,0.0036749309468000002,1.0,True,4.053844063826193,FeGeOFN,6.388704432519453,6.388704432519453,0.0
6206,perov_6206.cif,0.21228738071400002,0.0018374654734000001,0.92,True,1.999716024815992,PbGaO2N,5.5213437769772495,5.5213437769772495,0.0
6207,perov_6207.cif,0.203633562938,0.0018374654734000001,1.88,True,0.00035147526299539317,ScCdO2S,5.53995332860441,5.53995332860441,0.0
6208,perov_6208.cif,0.269337475228,0.0018374654734000001,1.34,True,0.017857106114579583,SnPtON2,6.249388008464418,6.249388008464418,0.0
6209,perov_6209.cif,0.176834915717,0.0018374654734000001,2.72,True,0.0012702377627338154,BiNaON2,5.416392099708312,5.416392099708312,0.0