,id,fermi level,fermi width,e_form,gap is direct,mu_b,formula,vbm,cbm,gap gllbsc
301,perov_301.cif,0.304174129113,0.0018374654734000001,0.86,False,-0.07873141701034927,ZrZnO3,6.485966845343686,5.235966845343686,1.3
302,perov_302.cif,0.129834898126,0.0018374654734000001,3.66,True,0.0,IrRbO3,5.564528980681918,5.564528980681918,0.0
303,perov_303.cif,0.22157251151700003,0.0018374654734000001,0.9,True,6.493573504451228,CoFeO3,5.949437185133654,5.949437185133654,0.0
304,perov_304.cif,0.338557993047,0.0018374654734000001,1.38,True,2.36616562982012,TiMnN3,5.477634541680351,5.477634541680351,0.0
305,perov_305.cif,0.297343698068,0.0018374654734000001,0.8,True,0.014926033211672516,PdReO3,5.9755496940278725,5.9755496940278725,0.0
306,perov_306.cif,0.20231028520599997,0.0018374654734000001,2.72,True,4.731362769228801,ReHgO3,6.1693578339826916,6.1693578339826916,0.0
307,perov_307.cif,0.147046056596,0.0018374654734000001,0.96,True,0.997184236983376,ZnGaO3,5.711878799766238,5.711878799766238,0.0
308,perov_308.cif,0.181220734652,0.0018374654734000001,2.1,True,-0.18605797354980694,GaZnON2,5.632157063585037,5.632157063585037,0.0
309,perov_309.cif,0.224511912285,0.0036749309468000002,0.32,True,1.2844461558160515e-15,CsTiO2F,5.368596678602884,5.368596678602884,0.0
310,perov_310.cif,-0.0961530970053,0.0036749309468000002,2.04,True,0.0,LiNaO2F,5.506687197946202,5.506687197946202,0.0
311,perov_311.cif,0.197728925711,0.0018374654734000001,3.84,True,0.23692912136924704,BCsON2,5.1826638473606765,5.1826638473606765,0.0
312,perov_312.cif,0.291105435482,0.0018374654734000001,1.36,True,2.408122636095137,IrFeO2N,6.169334678089669,6.169334678089669,0.0
313,perov_313.cif,0.336258234013,0.0018374654734000001,0.82,True,-1.9114105541557225,VBO3,5.8053571671976645,5.8053571671976645,0.0
314,perov_314.cif,0.398504407003,0.0036749309468000002,1.26,True,1.1001269960626665,ZrCoOFN,6.166943806904143,6.166943806904143,0.0
315,perov_315.cif,0.20064218430199998,0.0036749309468000002,1.6,True,1.9614046070629816,SbLiOFN,6.0815974499005705,6.0815974499005705,0.0
316,perov_316.cif,0.188887234273,0.0036749309468000002,0.3,True,-1.2525909029874563e-14,TlSnO2F,6.742427672663608,6.742427672663608,0.0
317,perov_317.cif,0.324401892063,0.0018374654734000001,1.34,True,2.05726921049682,PbSiN3,5.894296215048772,5.894296215048772,0.0
318,perov_318.cif,0.160725906446,0.0018374654734000001,1.44,True,-1.591215280954785,MoNaO2N,5.397675427593156,5.397675427593156,0.0
319,perov_319.cif,0.292440367589,0.0018374654734000001,0.4,False,-8.270474750556606e-05,BiNbON2,6.5463302564915455,5.0463302564915455,1.5
320,perov_320.cif,0.077431742149,0.0018374654734000001,1.66,True,-0.5566820715886046,LiAuO3,5.9432698216454325,5.9432698216454325,0.0
321,perov_321.cif,0.14807181180600001,0.0018374654734000001,1.74,True,1.4255250353888784e-12,CsPdO2S,5.096087691735843,5.096087691735843,0.0
322,perov_322.cif,0.24466562268800002,0.0018374654734000001,1.62,True,0.5121718279762533,SiNiO2N,6.1268436600941705,6.1268436600941705,0.0
323,perov_323.cif,0.215368137461,0.0036749309468000002,0.42,True,0.7732339188788301,GaMoO2F,5.935414501678611,5.935414501678611,0.0
324,perov_324.cif,0.283903903214,0.0036749309468000002,1.16,False,3.5898383737856425e-16,AuSiO2F,7.0996781072656825,6.79967810726568,0.3
325,perov_325.cif,0.186804504195,0.0018374654734000001,1.64,True,1.0955048048232965,CsCuO2N,5.264647506882137,5.264647506882137,0.0
326,perov_326.cif,0.210719731008,0.0018374654734000001,0.32,True,0.0028045443408224453,InNbO2S,5.347618344814476,5.347618344814476,0.0
327,perov_327.cif,0.17082947893,0.0018374654734000001,1.18,True,0.7142929855930475,TeCaO3,5.5268285297681,5.5268285297681,0.0
328,perov_328.cif,-0.0339918061124,0.0018374654734000001,1.88,True,0.0,RbKO3,4.749886480860325,4.749886480860325,0.0
329,perov_329.cif,0.37183718532,0.0018374654734000001,1.28,True,-3.021717144715005,MnBO2N,5.802630535160159,5.802630535160159,0.0
330,perov_330.cif,0.227812856409,0.0018374654734000001,1.84,True,1.292310465150127,MoSrON2,4.9933462276280425,4.9933462276280425,0.0
331,perov_331.cif,0.260362560427,0.0018374654734000001,2.24,True,2.8306736612108767,HgBeN3,6.287731138429946,6.287731138429946,0.0
332,perov_332.cif,0.151901937223,0.0018374654734000001,1.68,True,-0.0006915477372865768,CaCsO3,4.598861652055598,4.598861652055598,0.0
333,perov_333.cif,0.09551407227889999,0.0036749309468000002,1.4,True,0.0,CsHgO2F,5.832181889434687,5.832181889434687,0.0
334,perov_334.cif,0.19450973011599998,0.0018374654734000001,0.26,False,-1.0431555062203757e-05,CuTaO2S,6.384801239241767,5.184801239241766,1.2
335,perov_335.cif,0.371274941948,0.0018374654734000001,2.1,True,-0.00133721258355977,IrAsN3,6.4162912870392415,6.4162912870392415,0.0
336,perov_336.cif,0.1667975232,0.0018374654734000001,1.84,True,4.283318781890024,NiHfN3,5.651478211941414,5.651478211941414,0.0
337,perov_337.cif,0.141599464831,0.0018374654734000001,0.78,True,-0.3052248437994833,LiWON2,5.551068595293798,5.551068595293798,0.0
338,perov_338.cif,0.0940553212886,0.0018374654734000001,1.72,True,-1.9656017434491688,BaNaO2S,4.853689589496125,4.853689589496125,0.0
339,perov_339.cif,0.12138975713500001,0.0036749309468000002,1.72,True,2.5667798970795954,CrCdOFN,6.2308221704403985,6.2308221704403985,0.0
340,perov_340.cif,0.26934679527800004,0.0036749309468000002,-0.02,True,-1.8876863566231792,SrVO2F,5.3170976419245655,5.3170976419245655,0.0
341,perov_341.cif,0.24808285731,0.0018374654734000001,1.08,True,0.991432538939236,TiZrN3,5.453869503933589,5.453869503933589,0.0
342,perov_342.cif,0.164838254583,0.0018374654734000001,3.92,True,0.0,FeBaN3,5.299718619850832,5.299718619850832,0.0
343,perov_343.cif,0.0504013431631,0.0036749309468000002,1.26,True,0.0,NaBeO2F,6.070386234600322,6.070386234600322,0.0
344,perov_344.cif,0.0882916300409,0.0036749309468000002,1.46,True,0.0,KAuO2F,6.070247128791169,6.070247128791169,0.0
345,perov_345.cif,0.155780229111,0.0018374654734000001,1.22,True,-0.00022451385722195767,GaTlO2S,5.733509441041952,5.733509441041952,0.0
346,perov_346.cif,0.20398887200500002,0.0018374654734000001,1.16,True,1.2993099929303748e-07,TeCdO2S,6.118870777325608,6.118870777325608,0.0
347,perov_347.cif,0.21500545584800002,0.0036749309468000002,0.82,True,0.987800112031966,YLiO2F,5.632219503062393,5.632219503062393,0.0
348,perov_348.cif,0.330106426916,0.0018374654734000001,0.68,True,1.5795002658665651,NbCrON2,5.681896858030707,5.681896858030707,0.0
349,perov_349.cif,0.302585212657,0.0036749309468000002,0.64,True,2.069342252013181e-15,BiHfOFN,6.032193488260933,6.032193488260933,0.0
350,perov_350.cif,0.341812905594,0.0018374654734000001,0.9,True,0.0,NbCoO2N,5.890207061489908,5.890207061489908,0.0
351,perov_351.cif,0.258176259018,0.0018374654734000001,1.62,True,0.004693174989141015,RhBeO3,6.17745930134122,6.17745930134122,0.0
352,perov_352.cif,0.393593201102,0.0018374654734000001,1.26,True,0.5104467520171383,HfBeN3,5.774451503854497,5.774451503854497,0.0
353,perov_353.cif,0.136111513699,0.0018374654734000001,2.32,True,-0.562059955039344,SbKO3,5.495262042219598,5.495262042219598,0.0
354,perov_354.cif,0.175173710826,0.0018374654734000001,1.82,True,1.3346056314167374,RbBO2N,5.288828720686805,5.288828720686805,0.0
355,perov_355.cif,0.211203363754,0.0036749309468000002,1.44,True,1.2328376469337743,ReAsOFN,6.556017010813309,6.556017010813309,0.0
356,perov_356.cif,0.39521922782799995,0.0018374654734000001,1.22,True,0.0,MoBO2N,5.857728686237617,5.857728686237617,0.0
357,perov_357.cif,0.25913445945999997,0.0018374654734000001,2.12,True,-0.0006643900879743019,BeTeO2N,6.441374616855746,6.441374616855746,0.0
358,perov_358.cif,0.208791472992,0.0018374654734000001,1.0,True,3.9999677246389926,FeSnO2S,5.726311449398482,5.726311449398482,0.0
359,perov_359.cif,0.20746667291499998,0.0036749309468000002,1.6,True,0.4228359203369115,BeWOFN,6.574848871029985,6.574848871029985,0.0
360,perov_360.cif,0.197629208247,0.0018374654734000001,0.98,True,0.2532030250694586,MgMoN3,5.62263409091192,5.62263409091192,0.0
361,perov_361.cif,0.261610074448,0.0018374654734000001,0.8,True,0.3196714791799061,TaMgO3,5.800160489805088,5.800160489805088,0.0
362,perov_362.cif,0.315759683996,0.0018374654734000001,0.38,True,-6.853432894260431e-05,CaSbO3,5.391503228484131,5.391503228484131,0.0
363,perov_363.cif,0.041789026416000005,0.0036749309468000002,2.08,True,0.0,CoCaO2F,5.615473261534149,5.615473261534149,0.0
364,perov_364.cif,0.268470905612,0.0018374654734000001,1.54,True,2.3243321541325326,SrGeN3,5.124815230238942,5.124815230238942,0.0
365,perov_365.cif,0.10889997066299999,0.0018374654734000001,1.38,True,1.9999072775315765,AgLaO3,5.643583672504133,5.643583672504133,0.0
366,perov_366.cif,0.17978816770199998,0.0018374654734000001,0.5,True,3.9963409657198743,CrZrO2S,5.442581387400388,5.442581387400388,0.0
367,perov_367.cif,0.19619482956300002,0.0018374654734000001,1.46,True,0.7779890387576351,ZnBO2S,5.8296103564371125,5.8296103564371125,0.0
368,perov_368.cif,0.201982306306,0.0018374654734000001,1.94,True,0.0013995759831839651,BRuN3,5.943668889519347,5.943668889519347,0.0
369,perov_369.cif,0.13028146879,0.0036749309468000002,0.92,True,1.6964492726145863e-06,NaRuO2F,5.967873530826139,5.967873530826139,0.0
370,perov_370.cif,0.145609066142,0.0018374654734000001,1.86,True,4.646168958616535,InYN3,5.19937476357825,5.19937476357825,0.0
371,perov_371.cif,0.181467948299,0.0018374654734000001,0.56,True,0.09443809514262468,KAsO3,5.593649280914838,5.593649280914838,0.0
372,perov_372.cif,0.315528647116,0.0036749309468000002,1.48,True,-4.3529327563293507e-14,LaAuOFN,6.300754735943189,6.300754735943189,0.0
373,perov_373.cif,0.266724740525,0.0018374654734000001,1.9,True,1.3939445313664507,TeSnN3,6.187693688343173,6.187693688343173,0.0
374,perov_374.cif,0.190321012107,0.0018374654734000001,1.28,False,-0.0007320201383544872,BiCaO2N,5.33937997317155,5.0193799731715485,0.3
375,perov_375.cif,0.12432880286900001,0.0018374654734000001,2.1,True,2.3728880507390566,AuCdO3,6.420855459719584,6.420855459719584,0.0
376,perov_376.cif,0.261797488978,0.0018374654734000001,1.9,True,3.398889477218362,BaZnN3,5.3978350313907,5.3978350313907,0.0
377,perov_377.cif,0.30291828639199997,0.0036749309468000002,1.44,True,0.7080910851313966,BeSiO2F,6.726183989582977,6.726183989582977,0.0
378,perov_378.cif,0.177105732919,0.0018374654734000001,2.44,True,0.7756646947795858,NbRbON2,5.178785571241527,5.178785571241527,0.0
379,perov_379.cif,0.11344584619100001,0.0018374654734000001,2.4,True,0.9875990157896732,NiYON2,5.615926710561848,5.615926710561848,0.0
380,perov_380.cif,0.136321802943,0.0036749309468000002,2.28,True,0.0,RuLaOFN,5.995148080426789,5.995148080426789,0.0
381,perov_381.cif,0.0454203680405,0.0036749309468000002,2.3,True,0.0,CoBaO2F,5.841559253669603,5.841559253669603,0.0
382,perov_382.cif,0.118387199383,0.0018374654734000001,1.96,True,2.984920119378877,GeLiO2S,5.466897519931117,5.466897519931117,0.0
383,perov_383.cif,0.26582284183800003,0.0018374654734000001,1.08,True,2.9871407723330115,AsFeO3,6.203508281806044,6.203508281806044,0.0
384,perov_384.cif,0.318200583437,0.0018374654734000001,1.06,True,1.7573814257268232,NbSbON2,5.991466088529234,5.991466088529234,0.0
385,perov_385.cif,0.150220572562,0.0018374654734000001,1.32,True,4.056302166489848,CrKO3,5.211330861326396,5.211330861326396,0.0
386,perov_386.cif,0.251555093494,0.0036749309468000002,0.8,True,3.407319807267035e-15,TeZrOFN,6.475760358858866,6.475760358858866,0.0
387,perov_387.cif,0.20674593929699997,0.0018374654734000001,2.02,True,-0.060752133733324686,BiBaO2N,5.387908302903293,5.387908302903293,0.0
388,perov_388.cif,0.185256186257,0.0036749309468000002,1.54,True,4.146581211728063e-06,GaPtOFN,6.329320066588823,6.329320066588823,0.0
389,perov_389.cif,0.205426299368,0.0018374654734000001,1.78,True,0.0007578747476557622,SnAgON2,5.9723196606450655,5.9723196606450655,0.0
390,perov_390.cif,0.322725248954,0.0018374654734000001,2.02,True,2.6970878822249187,WOsO3,6.203392959955874,6.203392959955874,0.0
391,perov_391.cif,0.333537942238,0.0018374654734000001,0.42,True,0.011663152777156684,CsReO2N,5.149233311620527,5.149233311620527,0.0
392,perov_392.cif,0.28953070387400004,0.0018374654734000001,1.84,True,0.02572383937150491,PtBeO3,6.50559825940318,6.50559825940318,0.0
393,perov_393.cif,0.133858265189,0.0018374654734000001,1.12,True,1.0025366279646697,ZnScO3,5.761005386365764,5.761005386365764,0.0
394,perov_394.cif,0.0502511911308,0.0036749309468000002,3.5,True,0.0,RuKOFN,5.735372098896345,5.735372098896345,0.0
395,perov_395.cif,0.270078185551,0.0018374654734000001,1.64,True,0.01856205239918296,AuTeO2N,6.6554052379162885,6.6554052379162885,0.0
396,perov_396.cif,0.373533286038,0.0018374654734000001,1.74,True,-0.007918225140083241,OsBO2N,6.1288374476871565,6.1288374476871565,0.0
397,perov_397.cif,0.175312806958,0.0018374654734000001,0.62,True,0.054079885415166735,CuVO2N,5.814882930347704,5.814882930347704,0.0
398,perov_398.cif,0.0636040016472,0.0018374654734000001,3.84,True,1.1226768588979288,CuKON2,5.333243780634296,5.333243780634296,0.0
399,perov_399.cif,0.293539064387,0.0036749309468000002,1.02,True,0.0,NbVO2F,6.107741314637361,6.107741314637361,0.0
400,perov_400.cif,0.04265484225,0.0018374654734000001,4.22,True,0.0,KRbN3,4.650791726339183,4.650791726339183,0.0
401,perov_401.cif,0.107277142998,0.0018374654734000001,0.88,True,0.8246611481730105,KHfO2S,4.929354095539115,4.929354095539115,0.0
402,perov_402.cif,0.0779322051162,0.0018374654734000001,2.3,True,1.3979022775397745,MgBaO2S,5.1275426302714715,5.1275426302714715,0.0
403,perov_403.cif,0.15271636493899998,0.0018374654734000001,2.24,True,5.769289241148393,CoInON2,5.558259122769961,5.558259122769961,0.0
404,perov_404.cif,0.2618773339,0.0018374654734000001,0.98,True,0.0008493075731550449,SbTeO3,6.473509688666074,6.473509688666074,0.0
405,perov_405.cif,0.148347639172,0.0018374654734000001,1.96,True,-0.0007162233727433683,ZnScON2,5.6805979814381375,5.6805979814381375,0.0
406,perov_406.cif,0.255634724868,0.0018374654734000001,0.68,True,3.003870485000589,AsMnO2N,6.053250332395942,6.053250332395942,0.0
407,perov_407.cif,0.23034653589200002,0.0018374654734000001,1.26,True,0.692367487016197,BeWO3,6.2059280621346815,6.2059280621346815,0.0
408,perov_408.cif,0.198034094384,0.0018374654734000001,1.24,True,-0.8002269850035353,TiInO2S,5.1917315139808276,5.1917315139808276,0.0
409,perov_409.cif,0.268423585843,0.0036749309468000002,1.42,True,-0.1947758576899547,CsIrOFN,5.817723782368529,5.817723782368529,0.0
410,perov_410.cif,0.17040200989,0.0036749309468000002,1.0,True,1.0822677358307258,RbSnOFN,5.645376172804115,5.645376172804115,0.0
411,perov_411.cif,0.300876727182,0.0018374654734000001,1.58,True,0.0,VOsO3,5.959355006748782,5.959355006748782,0.0
412,perov_412.cif,0.0958540242318,0.0036749309468000002,2.86,True,0.9999101441319992,TaKO2F,5.669280966478291,5.669280966478291,0.0
413,perov_413.cif,0.28573112649599997,0.0018374654734000001,1.2,True,-0.37974235538697343,ScTeO3,6.00814974001455,6.00814974001455,0.0
414,perov_414.cif,0.168418008043,0.0018374654734000001,1.46,True,1.1805865012325114,CdCuO2S,5.875061477152985,5.875061477152985,0.0
415,perov_415.cif,0.21333764146499998,0.0018374654734000001,1.52,True,1.1931322169781635,CdPdO2N,6.053096813493072,6.053096813493072,0.0
416,perov_416.cif,0.148254207459,0.0018374654734000001,2.64,True,0.0,FeLaO2N,5.504672274310686,5.504672274310686,0.0
417,perov_417.cif,0.348694984145,0.0036749309468000002,1.5,True,0.8218700002705929,TaNiOFN,6.3445866047220285,6.3445866047220285,0.0
418,perov_418.cif,0.23866050798,0.0018374654734000001,1.26,True,0.0027317530244488357,AlAsON2,5.836183520924388,5.836183520924388,0.0
419,perov_419.cif,0.09571331011810001,0.0018374654734000001,3.06,True,4.4604906529242e-05,BScON2,5.639148240776668,5.639148240776668,0.0
420,perov_420.cif,0.22161886361699998,0.0036749309468000002,0.8,True,1.9518813295182549,AsZrO2F,6.475653270487719,6.475653270487719,0.0
421,perov_421.cif,0.126669887318,0.0018374654734000001,1.06,True,-0.1781077947696031,MgCaO2S,4.929091238709619,4.929091238709619,0.0
422,perov_422.cif,0.265039944704,0.0036749309468000002,1.36,False,1.389764188644899e-15,BeBO2F,8.687775804595944,4.487775804595943,4.2
423,perov_423.cif,0.251743472128,0.0018374654734000001,0.98,True,-1.4251386534880334e-05,IrScO2S,5.750870818667138,5.750870818667138,0.0
424,perov_424.cif,0.252973371171,0.0036749309468000002,1.9,True,3.7124775567455823,TaTeO2F,6.678506863240278,6.678506863240278,0.0
425,perov_425.cif,0.175618059115,0.0018374654734000001,1.26,True,2.9995048698369646,KTaN3,5.202840246392063,5.202840246392063,0.0
426,perov_426.cif,0.18294292598099998,0.0018374654734000001,1.6,True,0.6933329367102168,HgCuO3,6.307636957611279,6.307636957611279,0.0
427,perov_427.cif,0.236103749902,0.0018374654734000001,2.0,True,1.742677464988395,AlAlN3,5.242309522413469,5.242309522413469,0.0
428,perov_428.cif,0.08168396462119999,0.0018374654734000001,2.52,True,2.0470475570804667,BeYO2N,5.778594571607304,5.778594571607304,0.0
429,perov_429.cif,0.373126636559,0.0036749309468000002,0.8,False,1.0290573659362084e-15,CaSiOFN,6.790650977674247,4.590650977674246,2.2
430,perov_430.cif,0.291758918087,0.0018374654734000001,1.36,True,2.2849107538717157,FeCoN3,5.825316741460862,5.825316741460862,0.0
431,perov_431.cif,0.262019301872,0.0018374654734000001,1.64,True,0.0,WInN3,5.544769801929719,5.544769801929719,0.0
432,perov_432.cif,0.24902844323000004,0.0036749309468000002,0.84,True,-3.022835564354822e-09,ZnReO2F,6.375423120909991,6.375423120909991,0.0
433,perov_433.cif,0.127871492717,0.0036749309468000002,2.32,True,-1.0458937911190116e-14,AlAuO2F,6.4230944092031885,6.4230944092031885,0.0
434,perov_434.cif,0.32113995408199997,0.0018374654734000001,0.82,False,-0.00011138585094808423,LaBO2S,5.994720072744292,4.794720072744292,1.2
435,perov_435.cif,0.324462404782,0.0018374654734000001,0.64,True,-0.14104303382807756,HfZrO2N,5.518182062943756,5.518182062943756,0.0
436,perov_436.cif,0.204312916975,0.0036749309468000002,0.92,True,4.504304380266619e-15,InAsOFN,6.2270669637517155,6.2270669637517155,0.0
437,perov_437.cif,0.308397240224,0.0018374654734000001,1.24,True,1.6498120746224032,AuReN3,6.162893795876503,6.162893795876503,0.0
438,perov_438.cif,0.286519290501,0.0018374654734000001,1.3,True,0.0108690277055139,SbPtON2,6.401653246409119,6.401653246409119,0.0
439,perov_439.cif,0.0894268138917,0.0018374654734000001,2.56,True,-0.3842638406960137,BeNaON2,5.610233635140113,5.610233635140113,0.0
440,perov_440.cif,0.159887793492,0.0036749309468000002,2.18,True,1.0010617007436495,NbCaOFN,5.496073825920371,5.496073825920371,0.0
441,perov_441.cif,0.210692554321,0.0018374654734000001,1.32,True,0.02622896397754459,TlPtO2S,6.405625956765839,6.405625956765839,0.0
442,perov_442.cif,0.17952719094500003,0.0018374654734000001,1.9,True,0.2721305694410532,GeTlON2,6.315951622091258,6.315951622091258,0.0
443,perov_443.cif,0.238932362491,0.0036749309468000002,1.9,True,-0.06842369553243212,BReO2F,6.3289034348078665,6.3289034348078665,0.0
444,perov_444.cif,0.169651103314,0.0036749309468000002,0.36,True,0.8854933973935922,AgTiOFN,6.140396795187257,6.140396795187257,0.0
445,perov_445.cif,0.195869088548,0.0018374654734000001,2.3,True,-0.4054203347981941,VInN3,5.326641709416126,5.326641709416126,0.0
446,perov_446.cif,0.230170287287,0.0018374654734000001,1.72,True,0.7471365912189718,TaCdON2,5.913032638048384,5.913032638048384,0.0
447,perov_447.cif,0.231769696455,0.0036749309468000002,0.56,True,4.971281761646242,MnTiOFN,5.926911334265176,5.926911334265176,0.0
448,perov_448.cif,0.20485072590700001,0.0018374654734000001,1.58,True,1.0695600571091894,PbAuO2N,6.212264744789972,6.212264744789972,0.0
449,perov_449.cif,0.24815562366799998,0.0018374654734000001,1.92,True,0.047345098816030884,RhCuN3,5.941142106729796,5.941142106729796,0.0
450,perov_450.cif,0.286560726869,0.0018374654734000001,1.2,True,-0.2016416719754208,HfCuO3,5.792732372577491,5.792732372577491,0.0
451,perov_451.cif,0.197041111363,0.0018374654734000001,2.44,True,1.7062946569056603,MgLaN3,5.342300199524791,5.342300199524791,0.0