,id,fermi level,fermi width,e_form,gap is direct,mu_b,formula,vbm,cbm,gap gllbsc
901,perov_901.cif,0.0989159359468,0.0036749309468000002,1.58,True,-0.8836546571750216,GaTlOFN,6.311033534598259,6.311033534598259,0.0
902,perov_902.cif,0.189480715262,0.0018374654734000001,1.92,True,0.1415543292487769,LiCoN3,5.4869074742809065,5.4869074742809065,0.0
903,perov_903.cif,0.249152609932,0.0018374654734000001,1.0,True,-0.3163113687345177,YSnON2,5.590164492154566,5.590164492154566,0.0
904,perov_904.cif,0.191098358936,0.0036749309468000002,1.66,True,-3.6031990050702616e-05,TeCdOFN,6.735211490740557,6.735211490740557,0.0
905,perov_905.cif,0.309351265797,0.0036749309468000002,1.48,True,1.8095840504658545,WReO2F,6.361031499762513,6.361031499762513,0.0
906,perov_906.cif,0.272771303668,0.0018374654734000001,0.7,True,-4.39118502022495e-05,BiHfO2S,5.480186109855218,5.480186109855218,0.0
907,perov_907.cif,0.215005393647,0.0018374654734000001,1.16,True,0.028260508006818338,BeWO2S,5.973182976894785,5.973182976894785,0.0
908,perov_908.cif,0.187347983063,0.0018374654734000001,1.32,True,0.0,RhScON2,5.641774766480862,5.641774766480862,0.0
909,perov_909.cif,0.316548426994,0.0018374654734000001,1.68,True,0.0015892105214625474,HfSnN3,5.625552906373197,5.625552906373197,0.0
910,perov_910.cif,0.200670174546,0.0018374654734000001,1.22,True,2.9999979123318363,RhSnO3,6.018168843129987,6.018168843129987,0.0
911,perov_911.cif,0.20005742992199999,0.0018374654734000001,2.04,True,2.976637029256379,AsGaN3,5.79169677308656,5.79169677308656,0.0
912,perov_912.cif,0.101757233692,0.0036749309468000002,2.66,True,0.3314540069442061,ScRbO2F,5.405061019716662,5.405061019716662,0.0
913,perov_913.cif,0.20372704691399998,0.0036749309468000002,1.18,True,3.978983849034997,FeSnOFN,6.303110504713888,6.303110504713888,0.0
914,perov_914.cif,0.12211071851,0.0018374654734000001,2.1,True,-1.4490840334473354,MgYON2,5.439226571134727,5.439226571134727,0.0
915,perov_915.cif,0.169961774593,0.0036749309468000002,0.94,True,0.9181479024997684,AuGaO2F,6.419087485054687,6.419087485054687,0.0
916,perov_916.cif,0.347810344176,0.0018374654734000001,0.62,True,-1.815017346757272,NbAlO3,5.594869878461361,5.594869878461361,0.0
917,perov_917.cif,0.257230102472,0.0018374654734000001,1.8,True,2.7950947110740745,TlAlN3,5.836280034335604,5.836280034335604,0.0
918,perov_918.cif,0.319302105274,0.0018374654734000001,1.84,True,-4.20769327355834,ReSbO2N,6.03673476705067,6.03673476705067,0.0
919,perov_919.cif,0.154088736404,0.0018374654734000001,1.44,True,2.8851993969211738,NiScON2,5.667774830332784,5.667774830332784,0.0
920,perov_920.cif,0.31953565578299997,0.0018374654734000001,1.02,True,-0.0007308757293975196,LaBiON2,5.479519951105171,5.479519951105171,0.0
921,perov_921.cif,0.124414600956,0.0018374654734000001,1.9,True,2.383150270462352,CrCdO2S,5.660638236799934,5.660638236799934,0.0
922,perov_922.cif,0.120904391697,0.0018374654734000001,2.58,True,6.999998070683643,RuNaO3,5.5935620545974185,5.5935620545974185,0.0
923,perov_923.cif,0.10694828985600001,0.0036749309468000002,1.86,True,0.0,BaNaOFN,5.342591318777662,5.342591318777662,0.0
924,perov_924.cif,0.16116369407,0.0018374654734000001,2.88,True,5.121306750798908,PdTlN3,6.230273580681231,6.230273580681231,0.0
925,perov_925.cif,0.267933848784,0.0036749309468000002,1.1,True,1.999597823603601,ZrYO2F,5.850413327019115,5.850413327019115,0.0
926,perov_926.cif,0.20434322620499998,0.0018374654734000001,1.9,True,3.3123500822256697,HgSnN3,6.1255972375344605,6.1255972375344605,0.0
927,perov_927.cif,0.198532753534,0.0036749309468000002,0.32,False,-1.4084380381255898e-16,CuTaOFN,7.167491845484034,5.567491845484033,1.6
928,perov_928.cif,0.214349865182,0.0018374654734000001,0.66,True,-0.33963164366888643,CdTaON2,5.913032638048384,5.913032638048384,0.0
929,perov_929.cif,0.25079417708,0.0036749309468000002,1.48,True,1.0480734684056507,ScSbO2F,6.253249793908738,6.253249793908738,0.0
930,perov_930.cif,0.23087629504299997,0.0018374654734000001,1.94,True,0.0029922249697911245,RhCaN3,5.1534595763380135,5.1534595763380135,0.0
931,perov_931.cif,0.21679787378100002,0.0018374654734000001,1.2,True,0.1655429233955843,HfCaO3,5.0247261523684665,5.0247261523684665,0.0
932,perov_932.cif,0.115282041745,0.0036749309468000002,1.78,True,2.9915756357304915,GeLiOFN,6.017566367210398,6.017566367210398,0.0
933,perov_933.cif,0.229837263293,0.0018374654734000001,2.72,True,0.20636664857617146,RhCsON2,5.185077757978039,5.185077757978039,0.0
934,perov_934.cif,0.218627931665,0.0018374654734000001,1.1,True,1.3236306062837249,RuLaO2S,5.446530735596801,5.446530735596801,0.0
935,perov_935.cif,0.190517835835,0.0018374654734000001,2.12,True,2.8963313155521586,AsScN3,5.84150985614653,5.84150985614653,0.0
936,perov_936.cif,0.3040929675,0.0018374654734000001,0.84,True,0.0,WTiO2N,5.744857055415598,5.744857055415598,0.0
937,perov_937.cif,0.222326785831,0.0018374654734000001,0.82,True,0.7425348649165642,TeZrO2S,5.883162076686075,5.883162076686075,0.0
938,perov_938.cif,0.175851237568,0.0018374654734000001,1.56,True,2.3240658287386213,MgHfN3,5.473659476141088,5.473659476141088,0.0
939,perov_939.cif,0.174370420022,0.0018374654734000001,1.38,True,1.2274963632031015,BeMnON2,5.917258791371813,5.917258791371813,0.0
940,perov_940.cif,0.259104574139,0.0036749309468000002,0.72,True,0.9055411936432236,IrTaO2F,6.6416067762282385,6.6416067762282385,0.0
941,perov_941.cif,0.217230428541,0.0036749309468000002,1.42,True,0.4513278111644823,ZnBOFN,6.416814488829012,6.416814488829012,0.0
942,perov_942.cif,0.341105485743,0.0018374654734000001,2.02,True,1.5821888507511304,TeBeN3,6.351471174249388,6.351471174249388,0.0
943,perov_943.cif,0.160977556362,0.0018374654734000001,0.16,True,-0.02761512534566877,NaMoO2N,5.397675427593156,5.397675427593156,0.0
944,perov_944.cif,0.14899461142999998,0.0018374654734000001,1.1,True,0.0,KNbON2,5.2137215262729,5.2137215262729,0.0
945,perov_945.cif,0.21106602392299997,0.0036749309468000002,2.02,True,-5.207127476426394e-16,HfNaO2F,6.245832432221611,5.045832432221614,1.2
946,perov_946.cif,0.09448748022129999,0.0018374654734000001,1.74,True,2.2045445322678066,HgCaO3,5.47136417532317,5.47136417532317,0.0
947,perov_947.cif,0.151174577236,0.0018374654734000001,1.54,True,2.541381632294229,NaBO2N,5.501553024538157,5.501553024538157,0.0
948,perov_948.cif,0.30657094105599997,0.0036749309468000002,0.7,True,3.9637402137208366,ScCrO2F,5.930154628516491,5.930154628516491,0.0
949,perov_949.cif,0.219572274317,0.0036749309468000002,0.9,True,4.002840918000465,CrZrOFN,5.990800922867589,5.990800922867589,0.0
950,perov_950.cif,0.283952426893,0.0018374654734000001,1.0,True,2.933283607056409,ReZrO3,5.7401882713510135,5.7401882713510135,0.0
951,perov_951.cif,0.263786561655,0.0036749309468000002,1.88,True,0.0,WCuO2F,6.5036067701279165,6.5036067701279165,0.0
952,perov_952.cif,0.246783736038,0.0018374654734000001,0.68,True,-0.001471257846442644,CaBiO3,5.2159075641043655,5.2159075641043655,0.0
953,perov_953.cif,0.231205418614,0.0018374654734000001,1.4,True,2.360287125276232,NiMoN3,5.805292455077941,5.805292455077941,0.0
954,perov_954.cif,0.330143957083,0.0018374654734000001,1.5,True,-1.004252472226835,ReCrO2N,5.724826578145554,5.724826578145554,0.0
955,perov_955.cif,0.346797734161,0.0018374654734000001,1.32,True,1.142980755793161,ReCoON2,5.851878833407235,5.851878833407235,0.0
956,perov_956.cif,0.294743775529,0.0018374654734000001,1.08,True,1.1353369472999475e-05,LaAuO2S,5.7241712575561055,5.7241712575561055,0.0
957,perov_957.cif,0.163029694669,0.0018374654734000001,4.08,True,0.0,NiCsON2,5.208973138131385,5.208973138131385,0.0
958,perov_958.cif,0.231682085185,0.0036749309468000002,1.4,True,-1.4931591261634927e-16,BiAuO2F,6.748568545460036,6.748568545460036,0.0
959,perov_959.cif,0.166872156745,0.0036749309468000002,1.04,False,1.2853839192051046e-15,BeGaO2F,7.312656586866683,5.112656586866682,2.2
960,perov_960.cif,0.11494649077199999,0.0018374654734000001,1.12,True,0.9915336818300664,RbSnO2S,5.128766533652418,5.128766533652418,0.0
961,perov_961.cif,0.23712301832899998,0.0018374654734000001,2.76,True,-2.4882160310190935,WHgO2N,6.240932832507963,6.240932832507963,0.0
962,perov_962.cif,0.23537100441199998,0.0018374654734000001,1.7,True,1.9633650422352231,GaBeO2N,5.782212980562657,5.782212980562657,0.0
963,perov_963.cif,0.197492034096,0.0036749309468000002,1.62,True,1.1188900644763111,TiInOFN,5.714683480386692,5.714683480386692,0.0
964,perov_964.cif,0.219247753991,0.0018374654734000001,1.52,True,1.3018356524144323,CsIrO2S,5.285342574828769,5.285342574828769,0.0
965,perov_965.cif,0.0840518591855,0.0036749309468000002,1.94,True,1.9940780686556416,MgCaOFN,5.42558801419496,5.42558801419496,0.0
966,perov_966.cif,0.23184381782699998,0.0018374654734000001,1.72,True,0.0,CrZnN3,5.763698260668777,5.763698260668777,0.0
967,perov_967.cif,0.17041134316,0.0018374654734000001,1.58,True,3.076979996305788,MnPbON2,5.650296887079642,5.650296887079642,0.0
968,perov_968.cif,0.19705190083299998,0.0018374654734000001,1.98,True,-2.318971180284072,CoAuO2N,6.338021767321511,6.338021767321511,0.0
969,perov_969.cif,0.13008775609,0.0018374654734000001,2.14,True,-0.20620199050473925,AgPbON2,5.853818783604579,5.853818783604579,0.0
970,perov_970.cif,0.186328748967,0.0036749309468000002,1.28,True,-0.7737812967909403,CdCuOFN,6.466843803330465,6.466843803330465,0.0
971,perov_971.cif,0.180966060328,0.0018374654734000001,2.2,True,-0.0002195980698752712,CuCuON2,6.032314352875707,6.032314352875707,0.0
972,perov_972.cif,0.321556704992,0.0018374654734000001,1.42,True,-1.032006763320118,TaNiO2S,5.763992062196782,5.763992062196782,0.0
973,perov_973.cif,0.0408925694086,0.0018374654734000001,3.72,True,0.0,RuKO2S,5.210526912372694,5.210526912372694,0.0
974,perov_974.cif,0.207735663053,0.0018374654734000001,0.22,True,-0.24525417542281935,SrAlO3,4.870617124263055,4.870617124263055,0.0
975,perov_975.cif,0.23457113842900001,0.0018374654734000001,0.94,True,0.0,CoCrN3,5.724307109023474,5.724307109023474,0.0
976,perov_976.cif,0.397505591163,0.0018374654734000001,1.0,True,0.02156090815693901,ZrAsON2,5.984780273208967,5.984780273208967,0.0
977,perov_977.cif,0.180942158349,0.0018374654734000001,1.24,True,0.003294622074204057,GaPtO2S,5.7501225683905925,5.7501225683905925,0.0
978,perov_978.cif,0.31770789252500004,0.0018374654734000001,1.58,True,-0.006022226123801293,RuIrN3,6.209711172981772,6.209711172981772,0.0
979,perov_979.cif,0.18784921612,0.0018374654734000001,2.3,True,5.578303755019754,CoGaN3,5.554491842604282,5.554491842604282,0.0
980,perov_980.cif,0.21715247107799998,0.0018374654734000001,1.42,True,2.0005022589551733,PtSnO3,6.337846490087024,6.337846490087024,0.0
981,perov_981.cif,0.125645901646,0.0036749309468000002,1.62,True,0.0,PtLaO2F,6.300580489324001,6.300580489324001,0.0
982,perov_982.cif,0.43133011076899996,0.0018374654734000001,0.52,True,0.9449539997157624,LaSiN3,5.6032942003551565,5.6032942003551565,0.0
983,perov_983.cif,0.17302839840700002,0.0036749309468000002,0.78,True,0.9975999144677774,KHfOFN,5.425877348028421,5.425877348028421,0.0
984,perov_984.cif,0.059848383940099996,0.0036749309468000002,2.22,True,1.3586112026051749,MgBaOFN,5.644028988263881,5.644028988263881,0.0
985,perov_985.cif,0.190462199967,0.0018374654734000001,2.66,True,5.999190722921197,CsZnN3,5.1841967047984845,5.1841967047984845,0.0
986,perov_986.cif,0.261633103885,0.0018374654734000001,1.66,True,2.502440047968872,FePtN3,6.134750324537457,6.134750324537457,0.0
987,perov_987.cif,0.23622222848000002,0.0018374654734000001,2.86,True,-0.4904661344598082,TiHgN3,5.861632225120872,5.861632225120872,0.0
988,perov_988.cif,0.262636235919,0.0018374654734000001,1.44,True,2.896978016907404,NiBO3,6.04308884774273,6.04308884774273,0.0
989,perov_989.cif,0.295617676934,0.0018374654734000001,1.58,True,1.2982593989957252,InNiN3,5.544769801929719,5.544769801929719,0.0
990,perov_990.cif,0.29821500149999997,0.0018374654734000001,1.36,True,7.989954653620298,ReMnO3,5.765200932699766,5.765200932699766,0.0
991,perov_991.cif,0.230562103845,0.0018374654734000001,1.36,True,0.6129178271570125,ZnFeN3,5.865402979109273,5.865402979109273,0.0
992,perov_992.cif,0.157357588887,0.0018374654734000001,2.46,True,0.764948949721667,TiKON2,5.061737881746739,5.061737881746739,0.0
993,perov_993.cif,0.294243479074,0.0018374654734000001,1.02,True,-1.287672657159579,TiVO2N,5.518857644073954,5.518857644073954,0.0
994,perov_994.cif,0.279944333723,0.0018374654734000001,3.76,True,0.4923239454881525,ScCsN3,4.895068379262172,4.895068379262172,0.0
995,perov_995.cif,0.14224359853399998,0.0018374654734000001,0.68,True,-0.4485143708858798,AgTiO2S,5.578487707907735,5.578487707907735,0.0
996,perov_996.cif,0.269389851404,0.0018374654734000001,1.28,True,3.1928285658280693,MnGeON2,5.842960009267381,5.842960009267381,0.0
997,perov_997.cif,0.235979118109,0.0036749309468000002,1.4,True,3.9799217868962584,RuBeO2F,6.6510445241138045,6.6510445241138045,0.0
998,perov_998.cif,0.162335393181,0.0018374654734000001,2.6,True,-3.3243133649852488,RhHgO2N,6.212303492599758,6.212303492599758,0.0
999,perov_999.cif,0.226362863636,0.0018374654734000001,1.5,True,-3.5816932831171774e-05,AgGeON2,6.053421570167784,6.053421570167784,0.0
1000,perov_1000.cif,0.189823537712,0.0018374654734000001,0.52,True,4.689450273945746,MnTiO2S,5.384538349373726,5.384538349373726,0.0
1001,perov_1001.cif,0.258749975976,0.0018374654734000001,0.86,True,3.8274010668657317,FeWON2,5.893435049294416,5.893435049294416,0.0
1002,perov_1002.cif,0.221356327656,0.0036749309468000002,0.7,True,2.097026466769589e-08,RbMoOFN,5.536204400546846,5.536204400546846,0.0
1003,perov_1003.cif,0.149201498732,0.0018374654734000001,0.98,True,9.973161426302112e-05,PdBiO2S,5.779848221088166,5.779848221088166,0.0
1004,perov_1004.cif,0.287996147667,0.0018374654734000001,0.72,True,-0.0007672975897727142,InSbO2N,5.733839856551754,5.733839856551754,0.0
1005,perov_1005.cif,0.344803383425,0.0018374654734000001,0.54,True,0.01450928205694524,BiMoO3,5.848685536705094,5.848685536705094,0.0
1006,perov_1006.cif,0.0702964935587,0.0036749309468000002,3.12,True,0.0,TiRbO2F,5.4402032664860736,5.4402032664860736,0.0
1007,perov_1007.cif,0.23065101812199998,0.0018374654734000001,1.16,False,9.176341300588477e-06,SiSiO2S,6.482798898808802,5.582798898808802,0.9
1008,perov_1008.cif,0.154091958097,0.0036749309468000002,1.14,True,6.066053158451785e-15,SnHgO2F,6.6747642023312626,6.6747642023312626,0.0
1009,perov_1009.cif,0.125491089039,0.0018374654734000001,2.66,True,1.666666905997623,NbBaO2S,5.194156424666798,5.194156424666798,0.0
1010,perov_1010.cif,0.258107008919,0.0036749309468000002,2.3,True,1.4571014999140743,ZrAuO2F,6.586634668929918,6.586634668929918,0.0
1011,perov_1011.cif,0.08265210133760001,0.0018374654734000001,3.42,True,0.0,LiBaN3,4.991842846909786,4.991842846909786,0.0
1012,perov_1012.cif,0.24576919674199998,0.0018374654734000001,1.02,True,6.076716144448158,MnFeON2,5.698841185372614,5.698841185372614,0.0
1013,perov_1013.cif,0.239874819681,0.0018374654734000001,3.7,True,0.9002300343856646,SbCsN3,5.274214850004698,5.274214850004698,0.0
1014,perov_1014.cif,0.0754509506405,0.0036749309468000002,2.52,True,-1.6769872737602158e-14,CuCsO2F,5.656562136523006,5.656562136523006,0.0
1015,perov_1015.cif,0.05903906890240001,0.0018374654734000001,3.1,True,1.223490934120708,AsSrON2,5.3092592533080385,5.3092592533080385,0.0
1016,perov_1016.cif,0.197358118353,0.0018374654734000001,2.6,True,2.17129210467548,PtMgON2,6.080650642154759,6.080650642154759,0.0
1017,perov_1017.cif,0.399462174648,0.0036749309468000002,0.98,False,1.4101899640722398e-17,LaBOFN,6.0881186407660906,5.78811864076609,0.3
1018,perov_1018.cif,0.236115541964,0.0018374654734000001,1.52,True,0.5914525590926482,AgFeON2,5.904111632080225,5.904111632080225,0.0
1019,perov_1019.cif,0.324970417136,0.0018374654734000001,0.38,True,-0.12802126442075693,YNbO3,5.587880637547421,5.587880637547421,0.0
1020,perov_1020.cif,0.46499320016,0.0018374654734000001,0.72,True,-2.2444652655551067e-05,HfSiON2,5.781559852140365,5.781559852140365,0.0
1021,perov_1021.cif,0.205282202443,0.0036749309468000002,2.02,True,0.0,IrScOFN,6.330143686508893,6.330143686508893,0.0
1022,perov_1022.cif,0.12053875359,0.0036749309468000002,1.14,True,-1.2664909723697508,AgPdO2F,6.506639309169053,6.506639309169053,0.0
1023,perov_1023.cif,0.203165613313,0.0018374654734000001,1.46,True,2.9967288862970136,PbInON2,5.447973903911568,5.447973903911568,0.0
1024,perov_1024.cif,0.167112246746,0.0036749309468000002,1.3,True,4.897059973487071,MnPdO2F,6.280420558442647,6.280420558442647,0.0
1025,perov_1025.cif,0.24214687971999999,0.0018374654734000001,0.78,False,0.00010067677708283196,CaSiO2S,6.069898230979193,4.2698982309791935,1.8
1026,perov_1026.cif,0.132827777345,0.0018374654734000001,2.56,True,-2.383573913930033,NiHgO2N,6.240932832507963,6.240932832507963,0.0
1027,perov_1027.cif,0.293233550655,0.0036749309468000002,1.38,True,0.011249882172247537,SbOsO2F,6.748670988709089,6.748670988709089,0.0
1028,perov_1028.cif,0.21197743863200003,0.0036749309468000002,1.2,True,1.0711281455252395,TlPtOFN,7.050850903612641,7.050850903612641,0.0
1029,perov_1029.cif,0.202941868662,0.0018374654734000001,1.22,True,2.332110231010972,NbCaO2S,4.993126878002552,4.993126878002552,0.0
1030,perov_1030.cif,0.260054394962,0.0018374654734000001,0.84,True,0.07152605056251457,ReHfON2,5.586663454990607,5.586663454990607,0.0
1031,perov_1031.cif,0.0812531364135,0.0018374654734000001,1.56,True,0.0,KAgO3,5.399041341237883,5.399041341237883,0.0
1032,perov_1032.cif,0.210181939942,0.0018374654734000001,0.84,True,-0.0032150755417338795,HgTaON2,6.110315448611669,6.110315448611669,0.0
1033,perov_1033.cif,0.208658859421,0.0018374654734000001,0.82,True,0.0007040394278376992,InAsO2S,5.657226669917174,5.657226669917174,0.0
1034,perov_1034.cif,0.143659428877,0.0018374654734000001,0.72,True,0.9990396468590529,AgHfO3,5.782351065023486,5.782351065023486,0.0
1035,perov_1035.cif,0.196576434857,0.0036749309468000002,1.28,True,2.020289279500801,TiSbO2F,6.2939067349805775,6.2939067349805775,0.0
1036,perov_1036.cif,0.320131887926,0.0018374654734000001,0.96,True,-0.01185174569831345,BiAsON2,6.131917425720746,6.131917425720746,0.0
1037,perov_1037.cif,0.126061766945,0.0018374654734000001,2.62,True,0.549791462061677,InRbO2N,4.956103677824381,4.956103677824381,0.0
1038,perov_1038.cif,0.137969926597,0.0036749309468000002,1.36,True,2.2852926594323963,NiCuO2F,6.5036067701279165,6.5036067701279165,0.0
1039,perov_1039.cif,0.27717645325,0.0018374654734000001,1.46,True,0.8651599396953245,HgIrO2N,6.487348437649847,6.487348437649847,0.0
1040,perov_1040.cif,0.26130118974100003,0.0018374654734000001,2.62,True,1.8386230273181068,WCsON2,5.208973138131385,5.208973138131385,0.0
1041,perov_1041.cif,0.251295075211,0.0018374654734000001,1.6,True,-0.45566404377578296,ScPbO3,5.60810581430457,5.60810581430457,0.0
1042,perov_1042.cif,0.280498134431,0.0018374654734000001,0.14,True,2.0000000023180564,PbCrO3,5.730275387801796,5.730275387801796,0.0
1043,perov_1043.cif,0.28943812399700003,0.0036749309468000002,0.32,True,0.8085719190287185,SnTiO2F,6.144204280049716,6.144204280049716,0.0
1044,perov_1044.cif,0.270580275551,0.0018374654734000001,0.68,True,0.26885278057886103,ZrYO3,5.483469081690654,5.483469081690654,0.0
1045,perov_1045.cif,0.03469182860680001,0.0036749309468000002,0.64,True,0.0,NaYO2F,5.571026765526448,5.571026765526448,0.0
1046,perov_1046.cif,0.225208414872,0.0018374654734000001,1.64,True,1.6678959583303374,OsZnO3,6.21742792917619,6.21742792917619,0.0
1047,perov_1047.cif,0.173302594663,0.0018374654734000001,1.04,True,0.9510470281560472,GeRhO2S,5.87112497279701,5.87112497279701,0.0
1048,perov_1048.cif,0.0986698143951,0.0018374654734000001,3.96,True,0.0,MgRbON2,5.112368904307531,5.112368904307531,0.0
1049,perov_1049.cif,0.207839065218,0.0018374654734000001,0.88,True,-0.0054054838996372935,RhTiO2N,5.718503388459459,5.718503388459459,0.0
1050,perov_1050.cif,0.160430151545,0.0018374654734000001,1.18,True,4.595006626685933,MnHgO2S,5.849500143928938,5.849500143928938,0.0