,id,fermi level,fermi width,e_form,gap is direct,mu_b,formula,vbm,cbm,gap gllbsc
7388,perov_7388.cif,0.43163012393600003,0.0018374654734000001,0.98,True,-2.5788986712352586,NbSiO3,6.053553354537513,6.053553354537513,0.0
7389,perov_7389.cif,0.333271016981,0.0018374654734000001,1.6,True,1.8667068216849567,TlSiN3,6.3147550072404455,6.3147550072404455,0.0
7390,perov_7390.cif,0.0272894154465,0.0036749309468000002,3.16,True,0.0,PtRbO2F,5.9871804387372745,5.9871804387372745,0.0
7391,perov_7391.cif,0.180945287811,0.0018374654734000001,1.38,True,0.0016702471308764903,AlGaO3,5.350667794266503,5.350667794266503,0.0
7392,perov_7392.cif,0.172174006543,0.0018374654734000001,3.24,True,2.9317863827945767,SiHgN3,6.251383435629702,6.251383435629702,0.0
7393,perov_7393.cif,0.222509664176,0.0036749309468000002,0.74,True,2.3594291383543347,GeCoO2F,6.508087657702812,6.508087657702812,0.0
7394,perov_7394.cif,0.128208771608,0.0018374654734000001,1.38,True,1.031535861569946,RhSrO2S,4.970221660075749,4.970221660075749,0.0
7395,perov_7395.cif,0.178973599848,0.0018374654734000001,0.98,True,-2.4395508746812182,CoMgO2S,5.636065245953642,5.636065245953642,0.0
7396,perov_7396.cif,0.161897767481,0.0018374654734000001,1.82,True,0.02686503660679662,HgAuO3,6.635081304367068,6.635081304367068,0.0
7397,perov_7397.cif,0.0536059100677,0.0036749309468000002,1.06,True,0.0,KZnO2F,5.762928239944888,5.762928239944888,0.0
7398,perov_7398.cif,0.085718292475,0.0018374654734000001,2.84,True,4.006864699558924,BeYN3,5.697941671207062,5.697941671207062,0.0
7399,perov_7399.cif,0.296104745386,0.0018374654734000001,1.26,True,5.348751053347079,ReVO3,5.727516650426144,5.727516650426144,0.0
7400,perov_7400.cif,0.20834936769200002,0.0018374654734000001,1.18,True,0.43095051229757786,HgNiO2S,6.049238441241015,6.049238441241015,0.0
7401,perov_7401.cif,0.252568362885,0.0018374654734000001,1.02,True,2.394457726396588,AlCrO3,5.514251629251118,5.514251629251118,0.0
7402,perov_7402.cif,0.38434451481,0.0018374654734000001,1.1,True,0.0068670801973134115,LaPtON2,5.822978508457358,5.822978508457358,0.0
7403,perov_7403.cif,0.19024735874,0.0036749309468000002,0.98,False,-1.107437609000226e-15,BeTiOFN,7.012663228038704,5.512663228038704,1.5
7404,perov_7404.cif,0.316315032422,0.0018374654734000001,0.54,False,1.1692430980758672e-05,ZrNbN3,5.717627285024354,5.5176272850243535,0.2
7405,perov_7405.cif,0.142905158242,0.0036749309468000002,1.6,True,0.7525519160674764,BVOFN,6.1504654315225995,6.1504654315225995,0.0
7406,perov_7406.cif,0.23992761745000002,0.0018374654734000001,1.88,True,-0.21631806800626185,OsLiO2N,5.709524535622691,5.709524535622691,0.0
7407,perov_7407.cif,0.255313270282,0.0018374654734000001,0.54,True,2.492494481597073,CaCoO3,5.263264710969106,5.263264710969106,0.0
7408,perov_7408.cif,0.130458635703,0.0036749309468000002,2.08,False,-5.821187784369873e-17,BTeO2F,6.889288738494147,6.589288738494147,0.3
7409,perov_7409.cif,0.140041694664,0.0018374654734000001,2.46,True,-0.0019425562386722265,ZnCdON2,6.01070629150575,6.01070629150575,0.0
7410,perov_7410.cif,0.250803703961,0.0018374654734000001,1.76,True,-0.0007953243415528531,PtCaON2,5.465480319258939,5.465480319258939,0.0
7411,perov_7411.cif,0.311854159631,0.0036749309468000002,1.38,True,0.6079979702127005,HfGeOFN,6.169620706204923,6.169620706204923,0.0
7412,perov_7412.cif,0.22451055823199997,0.0018374654734000001,1.64,True,0.987926755970566,AlPtON2,5.894470589151506,5.894470589151506,0.0
7413,perov_7413.cif,0.280223591551,0.0036749309468000002,0.5,False,-4.6033912185082355e-15,CaTiOFN,6.185859413539709,4.48585941353971,1.7
7414,perov_7414.cif,0.191141991051,0.0018374654734000001,1.9,True,0.11847997181895666,NiLiN3,5.5121938337308585,5.5121938337308585,0.0
7415,perov_7415.cif,0.272369030739,0.0018374654734000001,-0.24,True,0.3002645850587413,RbWO3,5.353165772850118,5.353165772850118,0.0
7416,perov_7416.cif,0.187003373941,0.0018374654734000001,1.22,True,-0.0796138823489772,RhGaO2N,5.633114247536801,5.633114247536801,0.0
7417,perov_7417.cif,0.22299386248599998,0.0036749309468000002,0.74,False,-5.7851569674201354e-15,GeHfOFN,6.469620706204924,5.869620706204923,0.6
7418,perov_7418.cif,0.161443581296,0.0018374654734000001,2.8,True,3.7041585177801375,ZnTlN3,6.230273580681231,6.230273580681231,0.0
7419,perov_7419.cif,0.220382962755,0.0018374654734000001,0.76,True,-0.013490697852657912,PdMoO2S,5.719538543577832,5.719538543577832,0.0
7420,perov_7420.cif,0.25517807757399996,0.0018374654734000001,1.74,True,0.5128363027066882,TiZnN3,5.677491173617541,5.677491173617541,0.0
7421,perov_7421.cif,0.136485741203,0.0036749309468000002,1.16,True,1.0908376383060452,RbBiOFN,5.594580911079008,5.594580911079008,0.0
7422,perov_7422.cif,0.41501706485,0.0018374654734000001,0.78,True,2.7856232854776195,ZrMnO3,5.654651580768899,5.654651580768899,0.0
7423,perov_7423.cif,0.139079192495,0.0018374654734000001,3.12,True,0.0,CsHgN3,5.352338477850937,5.352338477850937,0.0
7424,perov_7424.cif,0.235973613373,0.0036749309468000002,0.1,True,6.522391304298329e-09,RbNbO2F,5.603550705393431,5.603550705393431,0.0
7425,perov_7425.cif,0.26607250065099997,0.0036749309468000002,0.26,False,8.292728608025996e-16,SnGaO2F,7.452458540039215,4.6524585400392136,2.8
7426,perov_7426.cif,0.260771664842,0.0018374654734000001,1.14,True,-0.000834593108574093,NbMgO2S,5.555131184006001,5.555131184006001,0.0
7427,perov_7427.cif,0.196262506922,0.0036749309468000002,1.6,True,0.0012812546020697336,SbAuO2F,6.975761869495857,6.975761869495857,0.0
7428,perov_7428.cif,0.162627978659,0.0018374654734000001,2.54,True,2.7011756260190554,PtAgO3,6.37858898814289,6.37858898814289,0.0
7429,perov_7429.cif,0.288219214187,0.0018374654734000001,1.26,True,0.9710280495371642,AuSiO3,6.513786787148358,6.513786787148358,0.0
7430,perov_7430.cif,0.324625675558,0.0018374654734000001,0.66,True,0.5650659349064356,SbWO3,6.193210889520925,6.193210889520925,0.0
7431,perov_7431.cif,0.376691239089,0.0036749309468000002,1.42,True,2.1289150436313804,HfFeOFN,6.017444672371937,6.017444672371937,0.0
7432,perov_7432.cif,0.164349799552,0.0018374654734000001,3.3,True,-2.439264371089564,PtBaON2,5.6855274075321125,5.6855274075321125,0.0
7433,perov_7433.cif,0.0954472316028,0.0018374654734000001,3.6,True,-9.299572071883292e-05,BCdON2,5.966847842485193,5.966847842485193,0.0
7434,perov_7434.cif,0.103596087248,0.0018374654734000001,1.22,True,-0.4707565716625183,CdSrO2S,4.99991719350688,4.99991719350688,0.0
7435,perov_7435.cif,0.325872262212,0.0036749309468000002,1.22,True,0.05985728481091001,TaReO2F,6.271822838621064,6.271822838621064,0.0
7436,perov_7436.cif,0.34116317424500003,0.0036749309468000002,0.9,True,4.995609584579442,MnSiOFN,6.321003078405731,6.321003078405731,0.0
7437,perov_7437.cif,0.159292980033,0.0036749309468000002,0.96,True,-0.34058658700551186,ZnTeO2F,6.7888249022065,6.7888249022065,0.0
7438,perov_7438.cif,0.215305710106,0.0018374654734000001,1.1,True,1.1511565285460108,RuInO2S,5.4750855422097775,5.4750855422097775,0.0
7439,perov_7439.cif,0.271267532449,0.0036749309468000002,1.04,True,-1.0439474309100594e-12,AgSiOFN,6.548683598591992,6.548683598591992,0.0