,id,fermi level,fermi width,e_form,gap is direct,mu_b,formula,vbm,cbm,gap gllbsc
5325,perov_5325.cif,0.20742340787099997,0.0018374654734000001,1.94,True,-0.002362413792399209,RhGaON2,5.5936649109864565,5.5936649109864565,0.0
5326,perov_5326.cif,0.193756806772,0.0036749309468000002,1.2,True,0.30130055574731784,SbYOFN,6.152654209810534,6.152654209810534,0.0
5327,perov_5327.cif,0.329440494744,0.0018374654734000001,0.6,True,0.08067313805194587,BaReO2S,5.196750909689731,5.196750909689731,0.0
5328,perov_5328.cif,0.240275620524,0.0018374654734000001,1.66,True,-0.0028617411715429987,AlPtO2N,5.936041358541147,5.936041358541147,0.0
5329,perov_5329.cif,0.132604903863,0.0018374654734000001,2.04,True,1.756362640315288,ZnCdO2N,6.053096813493072,6.053096813493072,0.0
5330,perov_5330.cif,0.165915970643,0.0036749309468000002,2.08,True,4.721299548182831,RuAuOFN,6.8239162595705745,6.8239162595705745,0.0
5331,perov_5331.cif,0.19109750524,0.0018374654734000001,1.56,True,-0.2861883838685812,PtCaO2N,5.504025633637756,5.504025633637756,0.0
5332,perov_5332.cif,0.10079955849099999,0.0018374654734000001,1.4,True,0.0,RbCuO3,5.3724917839057165,5.3724917839057165,0.0
5333,perov_5333.cif,0.271616558643,0.0018374654734000001,1.56,True,2.617551842867304,MoCuO3,5.950391079231937,5.950391079231937,0.0
5334,perov_5334.cif,0.17980406814199998,0.0018374654734000001,1.04,True,1.9999905134389573,AgAlO3,5.712873218864787,5.712873218864787,0.0
5335,perov_5335.cif,0.302653480889,0.0036749309468000002,0.62,True,3.3558957550155405e-15,SrMoOFN,5.365064454709962,5.365064454709962,0.0
5336,perov_5336.cif,0.282343859623,0.0036749309468000002,0.4,True,-1.918160954237758,BiVO2F,6.1409703556030655,6.1409703556030655,0.0
5337,perov_5337.cif,0.33592421031400005,0.0018374654734000001,0.82,True,0.0026727486357174253,ScMoON2,5.532672639168216,5.532672639168216,0.0
5338,perov_5338.cif,0.18387049737999997,0.0018374654734000001,0.84,True,1.1554760050224606,TiYO3,5.424989992124183,5.424989992124183,0.0
5339,perov_5339.cif,0.171003565599,0.0018374654734000001,2.64,True,2.9186305600715285,AlMgON2,5.44602987767562,5.44602987767562,0.0
5340,perov_5340.cif,0.104152607413,0.0036749309468000002,0.78,True,3.1997872697117584,NaCoO2F,5.9138567363616685,5.9138567363616685,0.0
5341,perov_5341.cif,0.20036519294799998,0.0018374654734000001,0.9,True,0.4975573731386369,RhZrO2N,5.780146427861445,5.780146427861445,0.0
5342,perov_5342.cif,0.24480973960900002,0.0036749309468000002,0.74,True,-0.19675526531620985,LiReO2F,5.895902730828432,5.895902730828432,0.0
5343,perov_5343.cif,0.276517763616,0.0018374654734000001,1.04,True,-2.076156990023404,CrBeO3,6.001016069259473,6.001016069259473,0.0
5344,perov_5344.cif,0.270260311574,0.0018374654734000001,1.68,True,3.2355247176367983,MnPdN3,5.763698260668777,5.763698260668777,0.0
5345,perov_5345.cif,0.17679977697000002,0.0036749309468000002,0.72,True,5.211676922703212,NiMnO2F,6.266243392220142,6.266243392220142,0.0
5346,perov_5346.cif,0.259777778972,0.0018374654734000001,0.82,False,-0.00011116954135256863,YInO2S,6.211007788895817,4.011007788895816,2.2
5347,perov_5347.cif,0.22858435238699998,0.0018374654734000001,1.48,True,0.1726201621113503,TePbON2,6.107692288265798,6.107692288265798,0.0
5348,perov_5348.cif,0.0764268003836,0.0036749309468000002,1.68,True,0.0,TlCaOFN,5.855379236674995,5.855379236674995,0.0
5349,perov_5349.cif,0.242695821735,0.0018374654734000001,1.5,True,-1.4977228845438515,NbPtO2S,6.0125555897569205,6.0125555897569205,0.0
5350,perov_5350.cif,0.30525612014000003,0.0036749309468000002,0.42,True,3.996737845466133e-08,SnZrO2F,6.210436194381236,6.210436194381236,0.0
5351,perov_5351.cif,0.349724996813,0.0018374654734000001,1.1,True,-3.9512003896341175,MoReO2N,5.7791859514993495,5.7791859514993495,0.0
5352,perov_5352.cif,0.038924011198699995,0.0036749309468000002,2.98,True,0.0,AsKOFN,5.9261722487498725,5.9261722487498725,0.0
5353,perov_5353.cif,0.234491359695,0.0018374654734000001,0.08,True,-4.637832918623957,MnTiO3,5.594346895663059,5.594346895663059,0.0
5354,perov_5354.cif,0.249204900796,0.0036749309468000002,0.78,False,-4.273105122388008e-15,ScZnO2F,7.096521880092656,5.196521880092655,1.9
5355,perov_5355.cif,0.180270810764,0.0018374654734000001,1.98,True,0.4503277775493651,AsAgON2,6.227367954902174,6.227367954902174,0.0
5356,perov_5356.cif,0.182861096106,0.0018374654734000001,1.84,True,-3.802192344208013,FeAuO2N,6.265637167314459,6.265637167314459,0.0
5357,perov_5357.cif,0.279491826013,0.0018374654734000001,1.64,True,0.4147952946460176,GeAsN3,6.2276957432636335,6.2276957432636335,0.0
5358,perov_5358.cif,0.09461084808049999,0.0018374654734000001,1.52,True,-0.7565826412949939,CdNaO2S,5.366928192960239,5.366928192960239,0.0
5359,perov_5359.cif,0.184595660772,0.0036749309468000002,0.98,True,6.34445504559113,RhMnO2F,6.2374979439293075,6.2374979439293075,0.0
5360,perov_5360.cif,0.301753855407,0.0018374654734000001,1.14,True,0.1647931875409583,YPtO3,5.97043756825856,5.97043756825856,0.0
5361,perov_5361.cif,0.225017135867,0.0018374654734000001,0.28,False,-2.989268566011561e-07,GeNbO2N,6.510193912046303,5.430193912046303,1.1
5362,perov_5362.cif,0.0726940507646,0.0036749309468000002,1.7,True,0.0,TlBaOFN,6.091124144075969,6.091124144075969,0.0
5363,perov_5363.cif,0.172698030979,0.0018374654734000001,0.88,True,-1.3820078911348057,NiZrO2N,5.806784176161988,5.806784176161988,0.0
5364,perov_5364.cif,0.062063686807900004,0.0036749309468000002,3.34,True,-0.3833262142982991,BeCsO2F,5.758855419324237,5.758855419324237,0.0
5365,perov_5365.cif,0.241635421771,0.0018374654734000001,0.68,True,0.00033765927830486936,TiTaN3,5.585232247876512,5.585232247876512,0.0
5366,perov_5366.cif,0.324677508869,0.0018374654734000001,0.9,True,7.81936335538802e-05,NbBeO2N,6.04611059398299,6.04611059398299,0.0
5367,perov_5367.cif,0.23262419620000002,0.0018374654734000001,1.08,True,0.0745756697207618,ZrCaO3,5.090750336199139,5.090750336199139,0.0
5368,perov_5368.cif,0.298108367091,0.0018374654734000001,2.2,True,-2.717854950147504,ReZnO2N,5.9337022432938324,5.9337022432938324,0.0
5369,perov_5369.cif,0.297484879774,0.0018374654734000001,0.8,True,3.9920806975376064,MoTiO3,5.647467315543183,5.647467315543183,0.0
5370,perov_5370.cif,0.150057321732,0.0018374654734000001,0.24,True,0.9988409874757522,RbTiO3,5.098987839392262,5.098987839392262,0.0
5371,perov_5371.cif,-0.00220410779831,0.0018374654734000001,3.28,True,3.9999999999975713,BLiO3,5.601208552634177,5.601208552634177,0.0
5372,perov_5372.cif,0.195086354498,0.0018374654734000001,2.42,True,5.481242022361579,RbPdN3,5.253343757402648,5.253343757402648,0.0
5373,perov_5373.cif,0.208061764155,0.0018374654734000001,1.7,True,-0.6476689521961697,CsBeO3,5.397653784896066,5.397653784896066,0.0
5374,perov_5374.cif,0.296087574032,0.0018374654734000001,1.68,True,1.1775033345747623,MoPdN3,5.818426735212682,5.818426735212682,0.0
5375,perov_5375.cif,0.283366826983,0.0036749309468000002,1.78,True,3.401683511123096,MoIrOFN,6.529458953994589,6.529458953994589,0.0
5376,perov_5376.cif,0.119442847441,0.0018374654734000001,1.76,True,-0.3065013797576885,RhKO3,5.364555590273549,5.364555590273549,0.0
5377,perov_5377.cif,0.25567543406,0.0036749309468000002,1.26,True,1.5347494881105743,OsMoOFN,6.415503061274356,6.415503061274356,0.0
5378,perov_5378.cif,0.301503162542,0.0018374654734000001,0.62,True,2.170598667839581,SnMnO2N,5.805333205422013,5.805333205422013,0.0
5379,perov_5379.cif,0.202876892597,0.0036749309468000002,1.82,True,2.6854138269891155,CoPtOFN,6.714609390070254,6.714609390070254,0.0
5380,perov_5380.cif,0.0803770279443,0.0036749309468000002,1.72,True,0.0,RhNaOFN,5.872441328391687,5.872441328391687,0.0
5381,perov_5381.cif,0.0891439718138,0.0018374654734000001,0.9,True,0.9356047621906836,NaHfO2S,5.093260805393603,5.093260805393603,0.0
5382,perov_5382.cif,0.23132989833700002,0.0036749309468000002,0.62,True,0.0,AsTiOFN,6.3617268227947905,6.3617268227947905,0.0
5383,perov_5383.cif,0.289552451198,0.0036749309468000002,1.22,True,3.1837022451179102,VReO2F,6.110792135996827,6.110792135996827,0.0
5384,perov_5384.cif,0.227358512764,0.0018374654734000001,1.52,True,0.0032922869059213147,YYN3,5.229220074625621,5.229220074625621,0.0
5385,perov_5385.cif,0.26990068307500004,0.0018374654734000001,0.6,True,0.0011637204950432078,AuWO3,6.412135388428043,6.412135388428043,0.0
5386,perov_5386.cif,0.19330989105799998,0.0018374654734000001,1.86,True,-2.063215725554251,CrPbN3,5.6107272185600925,5.6107272185600925,0.0
5387,perov_5387.cif,0.317277457947,0.0018374654734000001,2.18,True,-2.3956569741480997,IrTeO2N,6.553112035470008,6.553112035470008,0.0
5388,perov_5388.cif,0.15848186925000002,0.0036749309468000002,1.64,True,0.0004608876948495321,TeHgO2F,7.00901042389843,7.00901042389843,0.0
5389,perov_5389.cif,0.319020520094,0.0018374654734000001,0.96,True,0.09168530893062866,InOsO2N,5.74326668898546,5.74326668898546,0.0
5390,perov_5390.cif,0.163415016751,0.0018374654734000001,1.44,True,1.0613892380754812,GaInON2,5.239322045013289,5.239322045013289,0.0
5391,perov_5391.cif,0.0775708199843,0.0036749309468000002,2.34,True,0.0,SbRbO2F,5.8237088609716325,5.8237088609716325,0.0
5392,perov_5392.cif,0.242113914591,0.0018374654734000001,1.2,True,-0.22214435858751586,BaScON2,5.132737000567798,5.132737000567798,0.0
5393,perov_5393.cif,0.184291637557,0.0018374654734000001,3.0,True,0.009504587247842977,ZnLiN3,5.524664988031773,5.524664988031773,0.0
5394,perov_5394.cif,0.268771036381,0.0036749309468000002,1.04,True,0.08504116371100423,CuSiOFN,6.560440736432008,6.560440736432008,0.0
5395,perov_5395.cif,0.172047429162,0.0018374654734000001,2.74,True,0.0,CsPbN3,5.0466058843627515,5.0466058843627515,0.0
5396,perov_5396.cif,0.318293551569,0.0018374654734000001,1.2,True,1.0531526933117443,CdSiON2,6.0922104237976935,6.0922104237976935,0.0
5397,perov_5397.cif,0.32934517716899997,0.0018374654734000001,0.54,True,1.3164402855187696,SrOsO3,5.298400178597379,5.298400178597379,0.0
5398,perov_5398.cif,0.40958056200000004,0.0018374654734000001,1.84,True,-0.8562928544541791,ReCoN3,5.810897463705411,5.810897463705411,0.0
5399,perov_5399.cif,0.21283046635000002,0.0018374654734000001,1.22,False,0.0018016624740801281,SiSnO3,7.376749050727388,4.906749050727386,2.5
5400,perov_5400.cif,0.238777781613,0.0018374654734000001,1.28,True,-0.1931768936382372,NbLaO2N,5.488305268126124,5.488305268126124,0.0
5401,perov_5401.cif,0.263579715116,0.0018374654734000001,0.6,True,0.0039046284974055814,CdWO2S,5.853927614575492,5.853927614575492,0.0
5402,perov_5402.cif,0.233990221168,0.0036749309468000002,0.96,True,4.6150313433341633e-14,SbSbO2F,6.7375939146315815,6.7375939146315815,0.0
5403,perov_5403.cif,0.0877514502738,0.0018374654734000001,1.9,True,0.0,CsCdO2S,5.091498681415954,5.091498681415954,0.0
5404,perov_5404.cif,0.137972128692,0.0018374654734000001,3.68,True,3.999893919074143,SnRbN3,5.21744054886641,5.21744054886641,0.0
5405,perov_5405.cif,0.183134381873,0.0018374654734000001,2.32,True,3.3148340063884727,PdLiO2N,5.602865201501147,5.602865201501147,0.0
5406,perov_5406.cif,0.268595639296,0.0036749309468000002,1.68,True,0.8339240631100078,TiOsO2F,6.304254356405032,6.304254356405032,0.0
5407,perov_5407.cif,0.15507336884700001,0.0018374654734000001,3.02,True,5.226390494581875,NiTlN3,6.21620961420907,6.21620961420907,0.0
5408,perov_5408.cif,0.0684762529393,0.0036749309468000002,1.74,True,0.0,NiNaOFN,5.899504416838957,5.899504416838957,0.0
5409,perov_5409.cif,0.35532203269900003,0.0036749309468000002,0.66,True,0.9154828412942422,LaBeOFN,6.0981292907484645,6.0981292907484645,0.0
5410,perov_5410.cif,0.0179810664089,0.0036749309468000002,1.32,True,0.0,GaCaO2F,5.293253193578429,5.293253193578429,0.0
5411,perov_5411.cif,0.27740643977699997,0.0018374654734000001,1.52,True,0.7767524779831376,VGeN3,5.764116010782659,5.764116010782659,0.0
5412,perov_5412.cif,0.253961973556,0.0036749309468000002,0.72,True,0.5688451455835306,TeTiO2F,6.451882124972862,6.451882124972862,0.0
5413,perov_5413.cif,0.179496563389,0.0018374654734000001,1.18,True,2.391565869775285,BeFeO2N,6.0641410650755825,6.0641410650755825,0.0
5414,perov_5414.cif,0.16812778465199998,0.0036749309468000002,2.94,True,-1.6709749235997948e-16,YRbOFN,5.318110188023599,5.318110188023599,0.0
5415,perov_5415.cif,0.153337433344,0.0018374654734000001,2.38,True,4.5816906604559335,CrCsO3,5.1082765001493895,5.1082765001493895,0.0
5416,perov_5416.cif,0.199820803543,0.0018374654734000001,1.82,True,1.6240643338754401,ScLiO2S,5.127889521539967,5.127889521539967,0.0
5417,perov_5417.cif,0.18063839816100002,0.0018374654734000001,0.9,True,0.3117655561272379,CuGaO2S,5.505055045578394,5.505055045578394,0.0
5418,perov_5418.cif,0.126061340064,0.0036749309468000002,1.94,True,-0.13391376689829532,AsHgOFN,6.911070095712647,6.911070095712647,0.0
5419,perov_5419.cif,0.18435555609,0.0018374654734000001,1.66,True,1.531036141583776,CaAgO2N,5.260003133098203,5.260003133098203,0.0
5420,perov_5420.cif,0.193288554686,0.0018374654734000001,0.48,True,-0.00019740069214197758,NaTeO3,5.8205017830599415,5.8205017830599415,0.0
5421,perov_5421.cif,0.35680284191399997,0.0018374654734000001,2.44,True,2.4276827140898725,TlBN3,6.184813010330527,6.184813010330527,0.0
5422,perov_5422.cif,0.260221268382,0.0036749309468000002,0.38,True,-3.03964745645999e-15,SrSnO2F,5.509444679147443,5.509444679147443,0.0
5423,perov_5423.cif,0.133831761283,0.0018374654734000001,4.1,True,5.655384277998272,FeRbON2,5.19422954006835,5.19422954006835,0.0
5424,perov_5424.cif,0.07125570068630001,0.0018374654734000001,2.18,True,0.9901247374445886,CuBaO3,5.520260180225298,5.520260180225298,0.0
5425,perov_5425.cif,0.17809853339899998,0.0036749309468000002,1.68,True,2.7130396176813374,CrPdOFN,6.2364380625442095,6.2364380625442095,0.0
5426,perov_5426.cif,0.166698116863,0.0036749309468000002,0.86,True,4.828305621970549e-09,KRuO2F,5.775820825763488,5.775820825763488,0.0
5427,perov_5427.cif,0.168088461096,0.0018374654734000001,1.46,True,0.2720516256728871,AlLaO2S,5.0907112306867335,5.0907112306867335,0.0
5428,perov_5428.cif,0.291167272288,0.0018374654734000001,1.24,True,0.5007024808000684,WMnO2S,5.652950605566031,5.652950605566031,0.0
5429,perov_5429.cif,0.278656391545,0.0018374654734000001,1.32,True,-0.008638118129262117,TeCuO2N,6.326957895592058,6.326957895592058,0.0
5430,perov_5430.cif,0.315211012669,0.0036749309468000002,1.44,True,6.356154324468386e-13,YSbOFN,6.152654209810534,6.152654209810534,0.0
5431,perov_5431.cif,0.150535474218,0.0018374654734000001,1.62,True,0.0,CsCsO3,4.594673246513981,4.594673246513981,0.0
5432,perov_5432.cif,0.277931110637,0.0018374654734000001,1.98,True,0.002989062821134425,BIrN3,6.1506406806604685,6.1506406806604685,0.0
5433,perov_5433.cif,0.25578167716999994,0.0036749309468000002,2.0,True,0.0,ZrLaOFN,5.746159656246199,5.746159656246199,0.0
5434,perov_5434.cif,0.22517974893800002,0.0018374654734000001,1.26,True,-5.59243629894013e-06,TePdO2S,6.124385766703036,6.124385766703036,0.0
5435,perov_5435.cif,0.234444512027,0.0018374654734000001,0.86,True,2.0043026431437735e-05,InAlO2S,5.117400564093908,5.117400564093908,0.0
5436,perov_5436.cif,0.024928465265599997,0.0036749309468000002,1.44,True,0.0,GaBaO2F,5.5063662018963395,5.5063662018963395,0.0
5437,perov_5437.cif,0.23676154264199997,0.0036749309468000002,1.74,True,3.808262178378485,OsSnO2F,6.588151829930428,6.588151829930428,0.0
5438,perov_5438.cif,-0.0682799052879,0.0018374654734000001,4.12,True,0.0,BKO2S,5.160961259254005,5.160961259254005,0.0
5439,perov_5439.cif,0.165764529888,0.0018374654734000001,2.36,True,-0.002065132215064664,SiAgO2N,6.137943087339161,6.137943087339161,0.0
5440,perov_5440.cif,0.21044276848000001,0.0018374654734000001,1.8,True,0.5781226444641892,BeGeO2N,6.217498010777782,6.217498010777782,0.0
5441,perov_5441.cif,0.33456714728,0.0018374654734000001,1.2,True,0.136254259391265,WGeN3,6.000158849601058,6.000158849601058,0.0
5442,perov_5442.cif,0.280666523824,0.0018374654734000001,1.14,True,-0.9114343684274888,BiAlON2,5.546795192107803,5.546795192107803,0.0
5443,perov_5443.cif,0.24216908956099997,0.0018374654734000001,1.08,True,3.03309356572402,FeSbON2,6.009333600946057,6.009333600946057,0.0
5444,perov_5444.cif,0.31028761368200003,0.0018374654734000001,1.58,True,0.0022301022745843113,ZrBiN3,5.648189870695227,5.648189870695227,0.0
5445,perov_5445.cif,0.248028744221,0.0018374654734000001,0.6,True,0.00022066395260722518,SnAsO3,6.275175129666533,6.275175129666533,0.0
5446,perov_5446.cif,0.28618683049000004,0.0018374654734000001,1.32,True,0.23323520893971936,MgOsON2,5.924351050461412,5.924351050461412,0.0
5447,perov_5447.cif,0.26875062371999997,0.0018374654734000001,0.76,True,-4.117894615654893,CrSbO3,5.988718801800583,5.988718801800583,0.0
5448,perov_5448.cif,0.20919798088799998,0.0018374654734000001,0.74,True,0.798269002704986,MgMoO2S,5.5270735308536825,5.5270735308536825,0.0
5449,perov_5449.cif,0.209714830203,0.0018374654734000001,1.16,True,3.068367054026309,CrIrO2S,5.876150451116677,5.876150451116677,0.0
5450,perov_5450.cif,0.061107121814,0.0036749309468000002,1.36,True,0.0,KBeO2F,5.8750345584784816,5.8750345584784816,0.0
5451,perov_5451.cif,0.0596638791445,0.0036749309468000002,1.56,True,-0.7016849501396967,NaAuO2F,6.272089848060254,6.272089848060254,0.0
5452,perov_5452.cif,0.109968236012,0.0018374654734000001,2.24,True,4.153680196279652,ZnYN3,5.589214606264721,5.589214606264721,0.0
5453,perov_5453.cif,0.176956161545,0.0018374654734000001,2.28,True,-2.04800533522196,VHgO2N,5.995418082051301,5.995418082051301,0.0
5454,perov_5454.cif,0.118473703672,0.0018374654734000001,2.28,True,0.00045339251523657264,BNaO2S,5.332569174468763,5.332569174468763,0.0
5455,perov_5455.cif,0.378379297531,0.0036749309468000002,1.04,True,3.457385201818807e-10,LaRuOFN,5.995148080426789,5.995148080426789,0.0
5456,perov_5456.cif,0.269088528456,0.0018374654734000001,1.26,True,0.023028649870664,SnNiON2,5.961519735228051,5.961519735228051,0.0
5457,perov_5457.cif,0.353188896234,0.0018374654734000001,1.06,True,0.10588062347136074,TeReO2N,6.188255208846312,6.188255208846312,0.0
5458,perov_5458.cif,0.22889953333000002,0.0018374654734000001,2.72,True,0.015625746630750118,TiTlON2,5.962811048359134,5.962811048359134,0.0
5459,perov_5459.cif,0.21806938695,0.0036749309468000002,0.46,True,4.9996054103799965,VVO2F,5.980384905951652,5.980384905951652,0.0
5460,perov_5460.cif,0.22075244280099998,0.0018374654734000001,1.58,True,1.9263839000083924,MoPbON2,5.703948573091768,5.703948573091768,0.0
5461,perov_5461.cif,0.325185432898,0.0018374654734000001,0.62,True,-0.0049743009376601475,MgReO3,5.774469792365836,5.774469792365836,0.0
5462,perov_5462.cif,0.122083020054,0.0018374654734000001,0.44,True,2.0908866292088764,LiMnO3,5.4437587801093725,5.4437587801093725,0.0
5463,perov_5463.cif,0.17236553550099998,0.0018374654734000001,1.36,True,2.542976076646238,CoTlO2S,6.082529549121907,6.082529549121907,0.0
5464,perov_5464.cif,0.22566572707199997,0.0036749309468000002,2.24,True,1.670406705619353,TaAgOFN,6.356080496410062,6.356080496410062,0.0
5465,perov_5465.cif,0.22570278015999998,0.0018374654734000001,1.08,True,-1.3328608332062144,FeCoO2N,5.907772603254437,5.907772603254437,0.0
5466,perov_5466.cif,0.274782951816,0.0018374654734000001,1.2,True,4.0604617797002165,FeCrON2,5.698841185372614,5.698841185372614,0.0
5467,perov_5467.cif,0.103572535111,0.0018374654734000001,1.56,True,0.0019032990976981519,ZnNaO2S,5.371765450201114,5.371765450201114,0.0
5468,perov_5468.cif,0.340038142365,0.0018374654734000001,1.66,True,-1.3875438811224945,NbOsO3,6.086263569270805,6.086263569270805,0.0
5469,perov_5469.cif,0.31816859743799997,0.0018374654734000001,1.32,True,0.3028943517184679,TlOsN3,6.348876618165065,6.348876618165065,0.0
5470,perov_5470.cif,0.235235589377,0.0018374654734000001,0.44,True,-4.4884708498593153e-05,CsSbO3,5.3865929259553,5.3865929259553,0.0
5471,perov_5471.cif,0.115180256855,0.0018374654734000001,1.66,True,2.0013188498050067,AuLaO3,5.94721360071236,5.94721360071236,0.0
5472,perov_5472.cif,0.312345039527,0.0018374654734000001,0.46,True,3.067559433134195e-07,InGeO3,5.713482359479885,5.713482359479885,0.0