,id,fermi level,fermi width,e_form,gap is direct,mu_b,formula,vbm,cbm,gap gllbsc
2081,perov_2081.cif,0.292203653322,0.0036749309468000002,0.66,True,-0.24758077846431284,InReO2F,5.930746342221001,5.930746342221001,0.0
2082,perov_2082.cif,0.0193956241728,0.0018374654734000001,3.02,True,3.000008618656913,BeNaO3,5.689645050824399,5.689645050824399,0.0
2083,perov_2083.cif,0.00618297966197,0.0018374654734000001,1.92,True,0.0,RbSrO2S,4.400735209618574,4.400735209618574,0.0
2084,perov_2084.cif,0.253295042155,0.0018374654734000001,0.72,True,0.3004400489544423,WHfON2,5.691335276949352,5.691335276949352,0.0
2085,perov_2085.cif,0.179572862478,0.0036749309468000002,0.98,True,-1.7286272367510556e-15,ZnAsOFN,6.693961333927187,6.693961333927187,0.0
2086,perov_2086.cif,0.26169377361699997,0.0018374654734000001,1.54,True,1.8583300719746207,OsSbO3,6.325387052258791,6.325387052258791,0.0
2087,perov_2087.cif,0.350163874288,0.0018374654734000001,0.86,True,1.1438350504919654,TaCrO3,5.790850392851813,5.790850392851813,0.0
2088,perov_2088.cif,0.206901860182,0.0018374654734000001,1.32,True,1.5147143713352167,AgVN3,5.723447990403197,5.723447990403197,0.0
2089,perov_2089.cif,0.190728781167,0.0018374654734000001,1.9,True,5.362666524989523,MnPbN3,5.6107272185600925,5.6107272185600925,0.0
2090,perov_2090.cif,0.197940797085,0.0018374654734000001,0.66,True,1.000899271163643,AgCrO2S,5.663191525270684,5.663191525270684,0.0
2091,perov_2091.cif,0.277680909802,0.0018374654734000001,1.3,True,0.18921952705323447,GaOsN3,5.699180528559984,5.699180528559984,0.0
2092,perov_2092.cif,0.220652122398,0.0018374654734000001,0.62,True,-2.6554866413990506,MnCrO2S,5.4662972375904415,5.4662972375904415,0.0
2093,perov_2093.cif,0.22982923944400002,0.0018374654734000001,1.46,True,0.012202617604668122,CuCoN3,5.941142106729796,5.941142106729796,0.0
2094,perov_2094.cif,0.137707710733,0.0018374654734000001,1.3,True,0.006907471313354563,SrAgO2S,5.0021724570285615,5.0021724570285615,0.0
2095,perov_2095.cif,0.297452850728,0.0018374654734000001,1.34,True,-2.940684276708703,VOsO2N,5.91762096924244,5.91762096924244,0.0
2096,perov_2096.cif,0.358686278552,0.0018374654734000001,1.2,True,-1.71784134206283,TiReO2N,5.639200891155103,5.639200891155103,0.0
2097,perov_2097.cif,0.17933280144400002,0.0018374654734000001,2.56,True,-4.356032765865234,OsAgO2S,5.9815595846040726,5.9815595846040726,0.0
2098,perov_2098.cif,0.233652669106,0.0018374654734000001,1.8,True,0.005225481376921692,TeTlON2,6.543373297314201,6.543373297314201,0.0
2099,perov_2099.cif,0.247857692421,0.0018374654734000001,1.92,True,8.075720760025715e-05,GeAuN3,6.33442758232145,6.33442758232145,0.0
2100,perov_2100.cif,0.19357412767999999,0.0018374654734000001,2.94,True,6.607805884296027,FeHgN3,6.05563867284013,6.05563867284013,0.0
2101,perov_2101.cif,0.134620922535,0.0018374654734000001,2.28,True,6.989020699072054e-05,GaCdON2,5.627085324546886,5.627085324546886,0.0
2102,perov_2102.cif,0.290257436086,0.0018374654734000001,1.56,True,0.8214143846841786,TiPtN3,5.938209351337371,5.938209351337371,0.0
2103,perov_2103.cif,0.22700256521099998,0.0018374654734000001,1.16,True,0.4908216747796351,AlNiO3,5.7025424582581214,5.7025424582581214,0.0
2104,perov_2104.cif,0.29425268856,0.0018374654734000001,0.56,True,0.0009523300324048023,AgReO3,5.972861636397204,5.972861636397204,0.0
2105,perov_2105.cif,0.411335740021,0.0036749309468000002,0.76,True,-0.058698944378017474,LaTaOFN,5.88456254598058,5.88456254598058,0.0
2106,perov_2106.cif,0.242939147828,0.0018374654734000001,0.86,True,-0.4494616141920204,RuWO2S,5.872311778022916,5.872311778022916,0.0
2107,perov_2107.cif,0.28715820714400003,0.0018374654734000001,1.2,True,0.5108905707150093,SbNiON2,6.1067711134057285,6.1067711134057285,0.0
2108,perov_2108.cif,0.23490074871599997,0.0018374654734000001,1.12,True,0.09606914987379513,TlNiO2S,6.1105608270803895,6.1105608270803895,0.0
2109,perov_2109.cif,0.0673421059916,0.0036749309468000002,0.54,True,0.994668592023084,NaGaO2F,5.574515200800649,5.574515200800649,0.0
2110,perov_2110.cif,0.189199844876,0.0036749309468000002,1.08,True,-1.7938203858646542e-12,CdBiOFN,6.3563109242816225,6.3563109242816225,0.0
2111,perov_2111.cif,0.165605760834,0.0036749309468000002,1.56,True,-0.2837102382412033,AlScOFN,5.717501973156068,5.717501973156068,0.0
2112,perov_2112.cif,0.17689187957000002,0.0036749309468000002,2.36,True,5.069817364145024e-06,BAsOFN,6.645117363240327,6.645117363240327,0.0
2113,perov_2113.cif,0.26455393082,0.0018374654734000001,1.82,True,-0.009382763927931704,MoPbN3,5.664003175743552,5.664003175743552,0.0
2114,perov_2114.cif,0.15944082796700002,0.0018374654734000001,2.52,True,4.015837682120864,RbPbN3,5.1139177443150405,5.1139177443150405,0.0
2115,perov_2115.cif,0.234727609386,0.0036749309468000002,0.28,True,0.0008697295246875568,CdNbO2F,6.366502000699233,6.366502000699233,0.0
2116,perov_2116.cif,0.37761456323799997,0.0018374654734000001,0.44,True,0.002219790543971811,YTaO3,5.615544765638999,5.615544765638999,0.0
2117,perov_2117.cif,0.162924772828,0.0018374654734000001,1.6,True,1.2071172017421752,CuBiON2,5.929208557679659,5.929208557679659,0.0
2118,perov_2118.cif,0.189731795466,0.0036749309468000002,1.26,True,-7.967432302192303e-14,AsRhO2F,6.695098971299551,6.695098971299551,0.0
2119,perov_2119.cif,0.208135933399,0.0018374654734000001,1.0,True,2.832939474743755,CrRhO2S,5.627018545613702,5.627018545613702,0.0
2120,perov_2120.cif,0.103981316103,0.0018374654734000001,0.72,True,0.03937995486475288,NaBiO3,5.493059738261707,5.493059738261707,0.0
2121,perov_2121.cif,0.298618600789,0.0018374654734000001,1.7,True,0.026982666475856117,RhCoON2,5.9341721608429685,5.9341721608429685,0.0
2122,perov_2122.cif,0.261747946241,0.0018374654734000001,1.14,True,-1.1422542839715015,RhCrO2N,5.805333205422013,5.805333205422013,0.0
2123,perov_2123.cif,0.223641661808,0.0018374654734000001,1.6,True,-0.9347793707047036,IrCaO2N,5.457800543299266,5.457800543299266,0.0
2124,perov_2124.cif,0.263838279999,0.0036749309468000002,1.4,True,4.151402321969354,WNbOFN,6.313330962776991,6.313330962776991,0.0
2125,perov_2125.cif,0.21196397479,0.0018374654734000001,1.5,True,0.2254507381702009,BeMoO2N,6.015573120006686,6.015573120006686,0.0
2126,perov_2126.cif,0.173990774736,0.0018374654734000001,0.94,True,0.08573869496568423,RhYO2S,5.456672577654557,5.456672577654557,0.0
2127,perov_2127.cif,0.173631268024,0.0036749309468000002,1.84,True,4.3310962144930665,WBiO2F,6.392445529441451,6.392445529441451,0.0
2128,perov_2128.cif,0.174150544317,0.0018374654734000001,2.28,True,4.785036524471824,MnCsO3,5.1082765001493895,5.1082765001493895,0.0
2129,perov_2129.cif,0.199136007531,0.0018374654734000001,1.24,True,0.0006571502266972119,TeZnO2S,6.124385766703036,6.124385766703036,0.0
2130,perov_2130.cif,0.272458530676,0.0018374654734000001,1.3,True,1.787344823061094,CaBO2N,5.2239723218612975,5.2239723218612975,0.0
2131,perov_2131.cif,0.274192993259,0.0036749309468000002,0.18,True,2.999980474871317,SnCrO2F,6.2374979439293075,6.2374979439293075,0.0
2132,perov_2132.cif,0.45854477761000006,0.0018374654734000001,1.56,True,-8.002787853556015e-05,ZrTeN3,5.984879243975989,5.984879243975989,0.0
2133,perov_2133.cif,0.24516866367600001,0.0018374654734000001,1.06,True,1.5537439370832988,PtVO3,6.1165780926828965,6.1165780926828965,0.0
2134,perov_2134.cif,0.170751687399,0.0018374654734000001,3.18,True,0.0,SnSrN3,5.056154507322863,5.056154507322863,0.0
2135,perov_2135.cif,0.26643985669799997,0.0018374654734000001,1.8,True,-0.7804934501023832,IrBaO2N,5.677538434166211,5.677538434166211,0.0
2136,perov_2136.cif,0.11884434177999999,0.0018374654734000001,1.32,True,1.9999992379072609,ZnMgO3,5.895969679497857,5.895969679497857,0.0
2137,perov_2137.cif,0.159954881218,0.0036749309468000002,1.44,True,2.4403459987129006,CrZnOFN,6.2364380625442095,6.2364380625442095,0.0
2138,perov_2138.cif,0.18032924838599998,0.0036749309468000002,0.52,False,4.391789617491347e-17,CuHfO2F,6.830371981222797,5.530371981222795,1.3
2139,perov_2139.cif,0.20254368013000001,0.0018374654734000001,0.98,True,2.0006905812669094,VAlO2S,5.272754779814103,5.272754779814103,0.0
2140,perov_2140.cif,0.193660901026,0.0036749309468000002,0.9,True,4.529486380035825,FeNiO2F,6.3768158911717805,6.3768158911717805,0.0
2141,perov_2141.cif,0.037855916045800006,0.0018374654734000001,1.16,True,1.9999986564572063,LiYO3,5.278960610134138,5.278960610134138,0.0
2142,perov_2142.cif,0.146069777709,0.0018374654734000001,2.78,True,5.012831304726497,ReBaO3,5.399242318060254,5.399242318060254,0.0
2143,perov_2143.cif,0.18033614173700002,0.0018374654734000001,1.46,True,-0.044051060623820235,NaMnON2,5.309459587594825,5.309459587594825,0.0
2144,perov_2144.cif,0.194190218174,0.0018374654734000001,4.38,True,3.971290824422293,ReCsON2,5.113172648023089,5.113172648023089,0.0
2145,perov_2145.cif,0.209117425405,0.0018374654734000001,1.6,True,0.2641240547941165,AuAlON2,5.9362055235954365,5.9362055235954365,0.0
2146,perov_2146.cif,0.47874420968599996,0.0018374654734000001,0.22,True,0.013054855408579868,LaReON2,5.452592259413851,5.452592259413851,0.0
2147,perov_2147.cif,0.22938759500999997,0.0018374654734000001,1.32,True,1.7178320639468154,NiCoON2,5.961519735228051,5.961519735228051,0.0
2148,perov_2148.cif,0.24326880890799998,0.0018374654734000001,1.06,True,-0.6429860216570256,NiCrO2N,5.832087026740693,5.832087026740693,0.0
2149,perov_2149.cif,0.1870687789,0.0018374654734000001,2.82,True,4.369416139715955,MoCsO3,5.156781499501875,5.156781499501875,0.0
2150,perov_2150.cif,0.247505489368,0.0036749309468000002,1.4,True,-1.2331353383665594e-15,TeRhOFN,6.695209688660962,6.695209688660962,0.0
2151,perov_2151.cif,0.109770955953,0.0018374654734000001,1.6,True,-1.7801912146133705e-05,RbCsO3,4.65595720828603,4.65595720828603,0.0
2152,perov_2152.cif,0.241356564193,0.0018374654734000001,0.82,True,-1.7147350191565043,NbInO3,5.555988303060978,5.555988303060978,0.0
2153,perov_2153.cif,0.180533952429,0.0018374654734000001,2.0,True,4.999997702659279,TlInN3,5.795720777884196,5.795720777884196,0.0
2154,perov_2154.cif,0.20723894967300002,0.0036749309468000002,1.96,True,2.652980976164607,NbPbOFN,6.159677035979557,6.159677035979557,0.0
2155,perov_2155.cif,0.260977724154,0.0018374654734000001,1.66,True,0.05369489494012925,ScZnN3,5.6408161109257575,5.6408161109257575,0.0
2156,perov_2156.cif,0.25956748801699997,0.0018374654734000001,2.36,True,1.7257856266641376,BiTlN3,6.1320188297060625,6.1320188297060625,0.0
2157,perov_2157.cif,0.269525911645,0.0036749309468000002,1.48,True,-0.18962900416427045,TeOsO2F,6.9180608408728625,6.9180608408728625,0.0
2158,perov_2158.cif,0.18605907866799998,0.0018374654734000001,1.88,True,0.6903264936258785,InHgO2N,5.8187716205815745,5.8187716205815745,0.0
2159,perov_2159.cif,0.20216300736499998,0.0018374654734000001,2.72,True,0.209160690657388,YSrON2,4.796637465707531,4.796637465707531,0.0
2160,perov_2160.cif,0.156472351039,0.0018374654734000001,0.9,True,-0.5928623790216684,NiAsO2S,6.067667536622957,6.067667536622957,0.0
2161,perov_2161.cif,0.0735354956403,0.0018374654734000001,3.44,True,0.0,NiRbO2N,5.315676947148545,5.315676947148545,0.0
2162,perov_2162.cif,0.238411571169,0.0036749309468000002,0.6,True,6.78636256560892e-15,SnSbO2F,6.577338227374294,6.577338227374294,0.0
2163,perov_2163.cif,0.349030090382,0.0018374654734000001,1.12,True,0.9499724633754242,LaCuON2,5.574805899702738,5.574805899702738,0.0
2164,perov_2164.cif,0.21342224818799999,0.0018374654734000001,0.76,True,3.2958347605489573,MgFeO2S,5.571697475785125,5.571697475785125,0.0
2165,perov_2165.cif,0.341211955779,0.0018374654734000001,1.3,True,0.002866403284190965,TaBO2S,5.734879502169492,5.734879502169492,0.0
2166,perov_2166.cif,0.238670693015,0.0018374654734000001,1.46,True,0.009238406862737136,BeIrN3,6.316378024869803,6.316378024869803,0.0
2167,perov_2167.cif,0.047199331334600005,0.0036749309468000002,2.98,True,0.0,FeSrOFN,5.408380386630203,5.408380386630203,0.0
2168,perov_2168.cif,0.287681501855,0.0018374654734000001,0.56,True,-4.476998026313337,MnSbO3,5.988718801800583,5.988718801800583,0.0
2169,perov_2169.cif,0.220583746349,0.0036749309468000002,0.68,True,-7.429257133447258e-16,CaLaO2F,6.782317160086997,3.682317160086998,3.1
2170,perov_2170.cif,0.268065992898,0.0018374654734000001,1.48,True,-2.4373876968668244,RhSbO2N,6.121627671529746,6.121627671529746,0.0
2171,perov_2171.cif,-0.023566675721,0.0018374654734000001,3.84,True,0.0,BeKO2S,5.3000303509285605,5.3000303509285605,0.0
2172,perov_2172.cif,0.289837721842,0.0018374654734000001,2.0,True,0.003128382513924777,OsPbN3,5.926145888059643,5.926145888059643,0.0
2173,perov_2173.cif,0.22725953005,0.0018374654734000001,2.86,True,1.8948102518121672,YSrN3,4.763046070720747,4.763046070720747,0.0
2174,perov_2174.cif,0.261579019258,0.0018374654734000001,2.36,True,2.0003015828020274,ReScON2,5.563536318793037,5.563536318793037,0.0
2175,perov_2175.cif,0.137279762619,0.0036749309468000002,1.56,True,-0.0008077162638902657,SiLaO2F,6.255636086305058,5.955636086305058,0.3
2176,perov_2176.cif,0.08131452788719999,0.0036749309468000002,1.98,True,3.874337068054956e-06,SnRbO2F,5.685190203164932,5.685190203164932,0.0
2177,perov_2177.cif,0.24254014528700002,0.0018374654734000001,1.36,True,-1.6773111988309823,NiSbO2N,6.149839132803083,6.149839132803083,0.0
2178,perov_2178.cif,0.264329973105,0.0018374654734000001,2.08,True,2.8625630986436867,SbZnN3,6.077724312172875,6.077724312172875,0.0
2179,perov_2179.cif,0.221430338226,0.0036749309468000002,1.42,True,2.0090165713889765,MoLiO2F,5.863195250809162,5.863195250809162,0.0
2180,perov_2180.cif,0.15712633654799998,0.0036749309468000002,1.9,True,1.8066318984713092,TiHgO2F,6.387134417478593,6.387134417478593,0.0
2181,perov_2181.cif,0.158338069113,0.0018374654734000001,1.92,True,-0.2312367723888839,RhRbO2N,5.291292079333685,5.291292079333685,0.0
2182,perov_2182.cif,0.19670876205600002,0.0018374654734000001,0.24,True,-3.877291409881391e-05,RbSbO3,5.458439548608237,5.458439548608237,0.0
2183,perov_2183.cif,0.289058804859,0.0018374654734000001,1.24,True,4.463077700000163,MoSbO3,6.045583930693872,6.045583930693872,0.0
2184,perov_2184.cif,0.11595305855100001,0.0018374654734000001,2.34,True,5.984446856273222,PdYN3,5.589214606264721,5.589214606264721,0.0
2185,perov_2185.cif,0.276612326995,0.0018374654734000001,0.8,True,1.9999935937348163,LaLiO3,5.221456610450597,5.221456610450597,0.0
2186,perov_2186.cif,0.17095710970400002,0.0018374654734000001,1.0,True,-0.02436703254708364,RhAsO2S,6.0398330251776295,6.0398330251776295,0.0
2187,perov_2187.cif,0.116055734945,0.0018374654734000001,1.66,True,2.999994074438998,PdLaO3,5.646123540172042,5.646123540172042,0.0
2188,perov_2188.cif,0.258363038102,0.0018374654734000001,0.2,True,0.3092728547881887,GaWO3,5.6989850366123935,5.6989850366123935,0.0
2189,perov_2189.cif,0.139158381051,0.0018374654734000001,1.44,True,0.2115962540596854,PbAgO2S,5.714030861861635,5.714030861861635,0.0
2190,perov_2190.cif,0.20594034581,0.0018374654734000001,0.74,False,-0.00017959035341087433,MgGeO2S,6.262600943909249,5.16260094390925,1.1
2191,perov_2191.cif,0.190805575311,0.0018374654734000001,1.22,True,0.0021030820672454102,MgTiON2,5.5251342137247645,5.5251342137247645,0.0
2192,perov_2192.cif,0.049391407830099994,0.0018374654734000001,2.16,True,0.9392820254893685,LiLiO2N,5.181451899819807,5.181451899819807,0.0
2193,perov_2193.cif,0.231245777451,0.0036749309468000002,1.64,True,0.0,IrHfOFN,6.356457542804493,6.356457542804493,0.0
2194,perov_2194.cif,0.238120144536,0.0018374654734000001,1.46,True,1.9700704830664733,CrPtON2,6.070890317915981,6.070890317915981,0.0
2195,perov_2195.cif,0.137313953686,0.0018374654734000001,1.98,True,0.17759396752391865,RuNaON2,5.515491686849412,5.515491686849412,0.0
2196,perov_2196.cif,0.25893125506700004,0.0036749309468000002,0.84,True,2.45626550402462,CoGeO2F,6.508087657702812,6.508087657702812,0.0
2197,perov_2197.cif,0.09877229627520001,0.0018374654734000001,3.1,True,0.0,RuSrO2N,5.174559374493871,5.174559374493871,0.0
2198,perov_2198.cif,0.24767716433400003,0.0036749309468000002,1.26,True,-7.940584477902377e-15,AsOsOFN,6.821391395660733,6.821391395660733,0.0
2199,perov_2199.cif,0.179243779956,0.0018374654734000001,0.86,True,-2.8721291596453677,CrMgO2N,5.648585595207035,5.648585595207035,0.0
2200,perov_2200.cif,0.17366031261599998,0.0018374654734000001,1.3,True,2.0004128054886863,CdInO2N,5.630901840536909,5.630901840536909,0.0
2201,perov_2201.cif,0.18391675820199999,0.0018374654734000001,0.78,True,2.5604874700491105e-06,AgSbO2S,5.971741625078628,5.971741625078628,0.0
2202,perov_2202.cif,0.233601460263,0.0018374654734000001,0.9,True,4.686874633856825,MnSbO2S,5.764119861231588,5.764119861231588,0.0
2203,perov_2203.cif,0.19449789139499998,0.0018374654734000001,3.56,True,-0.7200891971173973,ZrCsO2S,4.895365999066847,4.895365999066847,0.0
2204,perov_2204.cif,0.339955754981,0.0018374654734000001,0.54,False,-0.00022029537391403032,BiGeO2N,6.2326746291980175,5.7726746291980175,0.5
2205,perov_2205.cif,0.255122256178,0.0018374654734000001,0.5,False,-0.0004804573360577544,InTiO2N,5.471252357697116,5.241252357697116,0.2
2206,perov_2206.cif,0.128117155384,0.0018374654734000001,1.58,True,0.7011397149223502,BeAlON2,5.7453035860665445,5.7453035860665445,0.0
2207,perov_2207.cif,0.277320397116,0.0018374654734000001,1.44,True,-0.2123796567250832,ZrPbO2N,5.665458591301467,5.665458591301467,0.0
2208,perov_2208.cif,0.24202621604200003,0.0018374654734000001,1.38,True,-0.019350195160084,TiCuO2N,5.765597151216272,5.765597151216272,0.0
2209,perov_2209.cif,0.292646534831,0.0018374654734000001,0.58,True,0.2800727710568723,TaScO3,5.6673893591662505,5.6673893591662505,0.0
2210,perov_2210.cif,0.180119784114,0.0018374654734000001,3.78,True,0.0,OsCsO3,5.395448860228308,5.395448860228308,0.0
2211,perov_2211.cif,0.220919948011,0.0018374654734000001,1.48,True,1.0182487609585813,TiPdO2S,5.580998279450102,5.580998279450102,0.0
2212,perov_2212.cif,0.243472646987,0.0018374654734000001,0.64,True,0.01190690205278067,IrNbON2,6.107915346409693,6.107915346409693,0.0
2213,perov_2213.cif,0.286749447225,0.0018374654734000001,1.04,True,4.750485161644203,MnAsO2N,6.053250332395942,6.053250332395942,0.0
2214,perov_2214.cif,-0.0401525798954,0.0018374654734000001,2.9,True,0.0,AgRbO2S,5.161736527616954,5.161736527616954,0.0
2215,perov_2215.cif,0.212459529801,0.0018374654734000001,1.7,True,0.3150315884921149,CoPdON2,5.975007474362156,5.975007474362156,0.0
2216,perov_2216.cif,0.0572001553362,0.0018374654734000001,3.02,True,2.6670892578828767,MnRbO2S,4.982276512488887,4.982276512488887,0.0
2217,perov_2217.cif,0.23057472891699998,0.0018374654734000001,1.38,True,1.3345819162350008,AgAsO2N,6.2712864838425215,6.2712864838425215,0.0
2218,perov_2218.cif,0.258945244761,0.0036749309468000002,-0.04,True,8.296261249158683e-08,KTaO2F,5.669280966478291,5.669280966478291,0.0
2219,perov_2219.cif,0.226073799911,0.0018374654734000001,1.1,False,3.824841477850783e-05,AuMoN3,6.3787051847524525,5.8787051847524525,0.5
2220,perov_2220.cif,0.203287393001,0.0036749309468000002,0.9,True,-1.095368722111646,CoFeO2F,6.347563208186722,6.347563208186722,0.0
2221,perov_2221.cif,0.321303098749,0.0018374654734000001,0.22,True,1.690695497636695e-05,BaTeO3,6.334345573892317,5.164345573892316,1.2
2222,perov_2222.cif,0.125372537214,0.0018374654734000001,2.22,True,-0.0023771067006064977,MgHgON2,6.002236641543977,6.002236641543977,0.0
2223,perov_2223.cif,0.0672732111024,0.0036749309468000002,3.54,True,0.0,AlCsOFN,5.254674909806619,5.254674909806619,0.0
2224,perov_2224.cif,0.145260814195,0.0018374654734000001,1.38,True,0.6531479276806849,CuAuO2S,6.193937700524336,6.193937700524336,0.0
2225,perov_2225.cif,0.284065393869,0.0018374654734000001,1.96,True,0.0007336631675301048,TaLiON2,5.473219051975393,5.473219051975393,0.0
2226,perov_2226.cif,-0.0246745268163,0.0036749309468000002,2.42,True,0.0,ZnKO2F,5.762928239944888,5.762928239944888,0.0
2227,perov_2227.cif,0.235700468922,0.0036749309468000002,0.9,True,1.2595317479177865e-12,InCuO2F,6.063677261246061,6.063677261246061,0.0