,id,fermi level,fermi width,e_form,gap is direct,mu_b,formula,vbm,cbm,gap gllbsc
1934,perov_1934.cif,0.267351163648,0.0018374654734000001,0.22,True,0.3137258849534491,TlMoO3,6.197326484150282,6.197326484150282,0.0
1935,perov_1935.cif,0.146831831489,0.0036749309468000002,0.86,True,-2.418595389137418e-13,HgBiO2F,6.614706841363164,6.614706841363164,0.0
1936,perov_1936.cif,0.28564788055,0.0018374654734000001,1.38,True,0.13865968126001071,NbPdON2,5.889206192090838,5.889206192090838,0.0
1937,perov_1937.cif,0.223427021432,0.0018374654734000001,1.42,True,2.6182653896567736,MoRhO2S,5.680449195051618,5.680449195051618,0.0
1938,perov_1938.cif,0.0867052277644,0.0018374654734000001,1.44,True,0.9460710742499856,KHgO3,5.576659903117044,5.576659903117044,0.0
1939,perov_1939.cif,0.248343005678,0.0036749309468000002,2.62,True,-3.584700834572945e-15,LaCsOFN,5.1909426989165,5.1909426989165,0.0
1940,perov_1940.cif,0.224781308161,0.0018374654734000001,2.08,True,-0.0005838747763085144,SiAlON2,5.7120915128010115,5.7120915128010115,0.0
1941,perov_1941.cif,0.25061798056400003,0.0036749309468000002,1.06,True,-1.4335874290784472,NbFeO2F,6.256412014669795,6.256412014669795,0.0
1942,perov_1942.cif,0.221400189216,0.0018374654734000001,1.48,True,-0.0006663676884038619,BiAgO2N,5.960323487462693,5.960323487462693,0.0
1943,perov_1943.cif,0.330356873161,0.0036749309468000002,1.68,True,4.643660446250985,ReReOFN,6.200315263588776,6.200315263588776,0.0
1944,perov_1944.cif,0.301091893793,0.0018374654734000001,0.62,True,0.0678228570864654,YZrO2S,5.277818860474676,5.277818860474676,0.0
1945,perov_1945.cif,0.33192874472899997,0.0018374654734000001,1.32,True,6.560530107080352e-05,TiBON2,5.6758124594272585,5.6758124594272585,0.0
1946,perov_1946.cif,0.09141142861580001,0.0018374654734000001,1.3,True,2.999995522144172,NaBeO3,5.689645050824399,5.689645050824399,0.0
1947,perov_1947.cif,0.240170747504,0.0018374654734000001,1.34,True,0.007454215631662783,CaAlON2,4.8950631875118855,4.8950631875118855,0.0
1948,perov_1948.cif,0.19310699533700001,0.0018374654734000001,2.04,True,-0.23687946643915006,PbHgON2,6.046398689578531,6.046398689578531,0.0
1949,perov_1949.cif,0.18022875265500002,0.0018374654734000001,1.2,True,1.3451616678232234,RuGaO2S,5.50996151954242,5.50996151954242,0.0
1950,perov_1950.cif,0.348790857751,0.0018374654734000001,1.04,True,0.0005226067085324362,HfAlO2S,5.215884305907206,5.215884305907206,0.0
1951,perov_1951.cif,0.27480824621399996,0.0036749309468000002,1.64,True,0.5215351930098179,ScIrO2F,6.3747870415676955,6.3747870415676955,0.0
1952,perov_1952.cif,0.209769921542,0.0018374654734000001,0.22,False,0.0004292925156648873,CuTaO3,7.275206029741441,4.745206029741442,2.5
1953,perov_1953.cif,0.177399356744,0.0018374654734000001,3.24,True,2.0183067354633555,MnCaN3,5.006264261938403,5.006264261938403,0.0
1954,perov_1954.cif,0.217450693242,0.0036749309468000002,1.54,True,2.381146378601404,MoZnOFN,6.295655378634418,6.295655378634418,0.0
1955,perov_1955.cif,0.29796655143399997,0.0036749309468000002,1.2,True,3.2105701752568163,NbGeO2F,6.4146313283909135,6.4146313283909135,0.0
1956,perov_1956.cif,0.144348172389,0.0018374654734000001,1.36,True,-2.0716998113859324,NiInO2N,5.623254593874345,5.623254593874345,0.0
1957,perov_1957.cif,0.33752653116400005,0.0018374654734000001,2.22,True,-3.319316272996021,ReIrO2N,6.154063860340553,6.154063860340553,0.0
1958,perov_1958.cif,0.276436282179,0.0018374654734000001,1.34,True,0.2553934551053239,PdOsO3,6.21742792917619,6.21742792917619,0.0
1959,perov_1959.cif,0.281938907579,0.0018374654734000001,0.52,True,0.19324465806738192,ReTaON2,5.796400769742539,5.796400769742539,0.0
1960,perov_1960.cif,0.216686110161,0.0018374654734000001,1.72,True,-0.0011279560324863119,SnCaON2,5.1898043636037405,5.1898043636037405,0.0
1961,perov_1961.cif,0.195512522739,0.0018374654734000001,1.04,True,1.0040186206085249,CsCrO2S,4.916697378130487,4.916697378130487,0.0
1962,perov_1962.cif,0.37747018017399997,0.0018374654734000001,1.54,True,0.0014847846919074925,ZrCuN3,5.7464088998238285,5.7464088998238285,0.0
1963,perov_1963.cif,0.291783509927,0.0018374654734000001,1.16,True,0.4387448842162625,CdCrN3,5.758508069212335,5.758508069212335,0.0
1964,perov_1964.cif,0.175676506091,0.0018374654734000001,1.16,True,0.007079761106361104,HgHfON2,5.889219426202576,5.889219426202576,0.0
1965,perov_1965.cif,0.32938543095899997,0.0018374654734000001,0.8,True,-0.00137836474618989,InReN3,5.442793529356137,5.442793529356137,0.0
1966,perov_1966.cif,0.172050227861,0.0018374654734000001,0.88,True,4.001380513388185,MnInO2S,5.270562821134972,5.270562821134972,0.0
1967,perov_1967.cif,0.0721073043136,0.0018374654734000001,1.1,True,-0.00032704100225556236,ZnBiO2S,5.779848221088166,5.779848221088166,0.0
1968,perov_1968.cif,0.152783347652,0.0018374654734000001,1.0,True,0.2269569611358797,AgInO2S,5.460406817397199,5.460406817397199,0.0
1969,perov_1969.cif,0.275251047772,0.0018374654734000001,0.84,True,-0.0005195114796902806,CdSbO2N,6.158202498892693,6.158202498892693,0.0
1970,perov_1970.cif,0.298230764302,0.0036749309468000002,1.22,True,0.2726432159922307,TaMoOFN,6.193351317860607,6.193351317860607,0.0
1971,perov_1971.cif,0.334840745541,0.0036749309468000002,1.44,True,3.2430505655682698,RuSiOFN,6.566287840847738,6.566287840847738,0.0
1972,perov_1972.cif,0.20883021474100003,0.0036749309468000002,1.2,True,0.00021499407370129123,PtGaO2F,6.373957613065964,6.373957613065964,0.0
1973,perov_1973.cif,0.136812851849,0.0018374654734000001,1.56,True,0.43628211508895737,GeAgO3,6.139106197205392,6.139106197205392,0.0
1974,perov_1974.cif,0.26785921089000003,0.0036749309468000002,1.74,True,0.0,IrCoO2F,6.705174410386813,6.705174410386813,0.0
1975,perov_1975.cif,0.21783227594000001,0.0018374654734000001,0.74,True,3.7431771278482096,PbFeO2S,5.612691789447561,5.612691789447561,0.0
1976,perov_1976.cif,0.39801264135200004,0.0018374654734000001,1.86,True,-0.0029716806248629244,HfOsO2N,5.853795147072482,5.853795147072482,0.0
1977,perov_1977.cif,0.189356517084,0.0018374654734000001,1.76,True,3.994381695745368,CdGaN3,5.587678209226507,5.587678209226507,0.0
1978,perov_1978.cif,0.0155506703439,0.0036749309468000002,2.02,True,0.0,GaSrOFN,5.156939282876637,5.156939282876637,0.0
1979,perov_1979.cif,0.191573636297,0.0018374654734000001,2.44,True,-0.5318388492546051,SnBaON2,5.3987523923605725,5.3987523923605725,0.0
1980,perov_1980.cif,0.23235957658599998,0.0018374654734000001,1.74,True,2.271692658380349,MgGeN3,5.811369187635666,5.811369187635666,0.0
1981,perov_1981.cif,0.0930589388778,0.0036749309468000002,1.96,True,-0.7868469604560244,BeLaO2F,6.141136363668719,6.141136363668719,0.0
1982,perov_1982.cif,0.211634441034,0.0018374654734000001,0.62,True,0.0005227918974668455,PbGeO2S,5.754631968734398,5.754631968734398,0.0
1983,perov_1983.cif,0.134134637672,0.0018374654734000001,1.16,True,-0.0002113200475490374,MgAgO2S,5.672296381826867,5.672296381826867,0.0
1984,perov_1984.cif,0.141229285451,0.0036749309468000002,1.82,True,3.1571275341893603,CoPbOFN,6.249418873983808,6.249418873983808,0.0
1985,perov_1985.cif,0.253997111518,0.0018374654734000001,1.4,True,2.082423251580284,OsSnO3,6.1749358285620435,6.1749358285620435,0.0
1986,perov_1986.cif,0.24169742512400003,0.0018374654734000001,0.88,True,-0.29135102043282635,PbTiON2,5.565785933594492,5.565785933594492,0.0
1987,perov_1987.cif,0.142378728476,0.0018374654734000001,2.04,True,-4.603160716677963e-05,BBiO2S,5.737674279082485,5.737674279082485,0.0
1988,perov_1988.cif,0.29271476921,0.0018374654734000001,0.84,True,0.17917709614226845,BaRhO2N,5.4368271078587975,5.4368271078587975,0.0
1989,perov_1989.cif,0.327210572884,0.0018374654734000001,0.94,True,0.7858557694571785,BaRuON2,5.448064256232693,5.448064256232693,0.0
1990,perov_1990.cif,0.204065502237,0.0018374654734000001,0.86,True,-2.2462839577741527e-05,CdAsO2S,6.075919154888568,6.075919154888568,0.0
1991,perov_1991.cif,0.09133784626260001,0.0018374654734000001,1.54,True,2.999999999186834,PbNaO3,5.432952124070982,5.432952124070982,0.0
1992,perov_1992.cif,0.180287242285,0.0018374654734000001,1.74,True,0.09836494854370592,AlCuON2,5.643251021500268,5.643251021500268,0.0
1993,perov_1993.cif,0.118696927668,0.0018374654734000001,1.76,True,0.4409086064602157,CdRbO2N,5.3229059089738975,5.3229059089738975,0.0
1994,perov_1994.cif,0.18111901319,0.0018374654734000001,1.84,True,3.802764124827416,CdScN3,5.6357365744437615,5.6357365744437615,0.0
1995,perov_1995.cif,0.292313547494,0.0018374654734000001,1.74,True,3.158898513461692,BaPdN3,5.3978350313907,5.3978350313907,0.0
1996,perov_1996.cif,0.17515384095199998,0.0018374654734000001,1.16,True,5.468906909555925e-07,AsLiO2S,5.6239900085811465,5.6239900085811465,0.0
1997,perov_1997.cif,0.189098757401,0.0036749309468000002,1.2,True,2.9157959551423565,CuCoOFN,6.428435891974437,6.428435891974437,0.0
1998,perov_1998.cif,0.20724978124000001,0.0036749309468000002,2.14,True,-1.4176012973551225e-15,ScHgOFN,6.30143436819048,6.30143436819048,0.0
1999,perov_1999.cif,0.138699995655,0.0018374654734000001,1.22,True,0.9874745028719863,AuInO3,5.978393363114967,5.978393363114967,0.0
2000,perov_2000.cif,0.00525118060432,0.0036749309468000002,1.08,True,0.0,LiMgO2F,5.817383423147698,5.817383423147698,0.0
2001,perov_2001.cif,0.190058494959,0.0018374654734000001,2.14,True,-0.1483027026448855,SrHgON2,5.293133642503539,5.293133642503539,0.0
2002,perov_2002.cif,0.278083971201,0.0018374654734000001,0.62,True,0.9799818215406368,CdCrO2N,5.840018271415192,5.840018271415192,0.0
2003,perov_2003.cif,0.266035358387,0.0018374654734000001,1.42,True,3.756992730237513,CdCoON2,5.969626999649033,5.969626999649033,0.0
2004,perov_2004.cif,0.11515110390000001,0.0036749309468000002,1.22,True,1.9359440133309616,LiAlOFN,5.5997717970128775,5.5997717970128775,0.0
2005,perov_2005.cif,0.29456763653499995,0.0018374654734000001,1.26,True,-0.021891734547446685,AlReON2,5.519536893545016,5.519536893545016,0.0
2006,perov_2006.cif,0.159185637788,0.0018374654734000001,2.02,True,1.4326833175061786,ZnAuON2,6.336944804835925,6.336944804835925,0.0
2007,perov_2007.cif,0.307897046091,0.0018374654734000001,-0.26,True,-6.813789588524903e-05,BaTiO3,7.259233611035357,3.2192336110353565,4.0
2008,perov_2008.cif,0.35462794879500004,0.0018374654734000001,1.62,True,4.312016045134016,WReO3,5.962060730909122,5.962060730909122,0.0
2009,perov_2009.cif,0.18441034678100002,0.0036749309468000002,1.1,True,0.09966076298212913,SbCdO2F,6.616635784018049,6.616635784018049,0.0
2010,perov_2010.cif,0.173432064733,0.0018374654734000001,1.54,True,-0.4509138507046033,RbZrON2,5.082018103570769,5.082018103570769,0.0
2011,perov_2011.cif,0.21840610046199999,0.0018374654734000001,1.04,True,0.04093180710268207,MoMgO2N,5.702221031861643,5.702221031861643,0.0
2012,perov_2012.cif,0.15159891991399999,0.0018374654734000001,1.06,True,0.3626026150834463,CsSbO2S,5.184575916226566,5.184575916226566,0.0
2013,perov_2013.cif,0.257638470327,0.0018374654734000001,1.12,True,0.13408693872996302,SiMoO2N,5.980798690387273,5.980798690387273,0.0
2014,perov_2014.cif,0.178922832823,0.0036749309468000002,0.96,True,0.0009367051684403551,GaNiO2F,6.080351236046343,6.080351236046343,0.0
2015,perov_2015.cif,0.267750008867,0.0018374654734000001,0.82,True,0.3032450740887373,SrMoN3,4.958377258920861,4.958377258920861,0.0
2016,perov_2016.cif,0.251120921183,0.0018374654734000001,1.44,True,3.107845672080188,ReAsO3,6.188152874891091,6.188152874891091,0.0
2017,perov_2017.cif,0.311592916433,0.0018374654734000001,0.18,True,0.12272732688179742,CaMoO2N,5.1253358661401975,5.1253358661401975,0.0
2018,perov_2018.cif,0.275579297043,0.0018374654734000001,2.0,True,0.5330075630015222,OsCaN3,5.287701792431823,5.287701792431823,0.0
2019,perov_2019.cif,0.242390740826,0.0018374654734000001,3.02,True,0.0,ZrKO2N,5.152383995936031,5.152383995936031,0.0
2020,perov_2020.cif,0.252901256087,0.0036749309468000002,2.04,True,2.469817755246641,TaPtO2F,6.697858167386314,6.697858167386314,0.0
2021,perov_2021.cif,0.367152445737,0.0018374654734000001,0.5,True,0.679888543697821,ZrVON2,5.539282780655213,5.539282780655213,0.0
2022,perov_2022.cif,0.269943436185,0.0018374654734000001,1.8,True,-1.7978616146968024e-05,BaBeON2,5.5416479748482255,5.5416479748482255,0.0
2023,perov_2023.cif,0.172260222894,0.0018374654734000001,2.84,True,0.8545055758585551,BAuON2,6.290705884284818,6.290705884284818,0.0
2024,perov_2024.cif,0.322467859497,0.0018374654734000001,1.06,True,-3.8016024223708193e-05,SbTeON2,6.3831577309901855,6.3831577309901855,0.0
2025,perov_2025.cif,-0.0170091463737,0.0018374654734000001,2.64,True,0.0,CsRbO2S,4.481341720245213,4.481341720245213,0.0
2026,perov_2026.cif,0.154898153398,0.0018374654734000001,0.82,True,0.002681507907823288,TlTeO2S,6.3871189634797325,6.3871189634797325,0.0
2027,perov_2027.cif,0.2158603557,0.0018374654734000001,1.12,True,1.6691692437751424,CsAsO2N,5.4446362400113095,5.4446362400113095,0.0
2028,perov_2028.cif,0.0968362994826,0.0018374654734000001,3.54,True,5.994725462789296,CuSrN3,5.097793608439808,5.097793608439808,0.0
2029,perov_2029.cif,0.326285803937,0.0018374654734000001,0.82,True,-2.9999458445718767,VReO3,5.727516650426144,5.727516650426144,0.0
2030,perov_2030.cif,0.24754547124499998,0.0018374654734000001,2.0,True,0.00577034948833699,OsHgON2,6.329488745918809,6.329488745918809,0.0
2031,perov_2031.cif,0.213167023685,0.0036749309468000002,0.44,True,-1.6757348143028667,MgVO2F,6.029411015953839,6.029411015953839,0.0
2032,perov_2032.cif,0.24300520166499998,0.0018374654734000001,0.82,True,0.5184923239185579,BaCuO3,5.520260180225298,5.520260180225298,0.0
2033,perov_2033.cif,0.234493539281,0.0036749309468000002,1.52,True,-6.9303558496886e-13,YCdOFN,6.042197337378077,6.042197337378077,0.0
2034,perov_2034.cif,0.26031678218000004,0.0018374654734000001,1.0,True,0.0006520073103608581,TeSnON2,6.231332414413885,6.231332414413885,0.0
2035,perov_2035.cif,0.26730651429,0.0018374654734000001,1.6,True,0.630407779447044,OsFeO2S,5.87547585587605,5.87547585587605,0.0
2036,perov_2036.cif,0.19873409288,0.0018374654734000001,1.08,True,2.99994554419612,NiAlO3,5.7025424582581214,5.7025424582581214,0.0
2037,perov_2037.cif,0.37015069358400005,0.0036749309468000002,0.4,True,2.559272186596134e-15,LaScOFN,6.698156286168313,4.598156286168313,2.1
2038,perov_2038.cif,0.044706163549800004,0.0018374654734000001,2.74,True,-4.130092730794872,PdKO3,5.401471153806647,5.401471153806647,0.0
2039,perov_2039.cif,0.302886630953,0.0018374654734000001,1.28,True,0.03630855963059432,SnCoN3,5.892614481656334,5.892614481656334,0.0
2040,perov_2040.cif,0.112021996611,0.0036749309468000002,1.2,True,1.0266794931084853,AuLaO2F,6.3451908253505485,6.3451908253505485,0.0
2041,perov_2041.cif,0.177347724429,0.0036749309468000002,0.98,True,0.9840235697604492,CaYOFN,5.252894713375434,5.252894713375434,0.0
2042,perov_2042.cif,0.162692041837,0.0036749309468000002,1.26,True,1.5475891790374057,NiBiOFN,6.347678509993735,6.347678509993735,0.0
2043,perov_2043.cif,0.21057689161600002,0.0036749309468000002,0.66,True,0.0,NiNbO2F,6.357855746057293,6.357855746057293,0.0
2044,perov_2044.cif,0.16574994300100002,0.0018374654734000001,2.58,True,3.7860687356655767,FeCdON2,5.90144972313843,5.90144972313843,0.0
2045,perov_2045.cif,0.23562676929499998,0.0018374654734000001,0.96,True,3.998157726670122e-06,SrTiON2,4.872395997118004,4.872395997118004,0.0
2046,perov_2046.cif,0.268682905499,0.0036749309468000002,0.58,True,0.0382548128335749,GeZrO2F,6.294771639058174,6.294771639058174,0.0
2047,perov_2047.cif,0.25776644974,0.0018374654734000001,0.86,True,3.8013701041236527,MoSnO3,5.901787907965195,5.901787907965195,0.0
2048,perov_2048.cif,0.04564879372740001,0.0036749309468000002,1.52,True,0.0,KCsO2F,5.0010365955151626,5.0010365955151626,0.0
2049,perov_2049.cif,0.196291140625,0.0018374654734000001,0.58,False,-5.3394706955037876e-05,SrGeO2S,5.1377154464582055,4.937715446458206,0.2
2050,perov_2050.cif,0.144687747419,0.0018374654734000001,0.4,True,-0.7443795090818649,RbSnO3,5.328608930690624,5.328608930690624,0.0
2051,perov_2051.cif,0.327101260665,0.0036749309468000002,0.94,True,0.627316606465051,ScTiOFN,5.800549478881326,5.800549478881326,0.0
2052,perov_2052.cif,0.219111689379,0.0036749309468000002,1.18,True,9.192942849458576e-09,AlTaOFN,5.956810729582148,5.956810729582148,0.0
2053,perov_2053.cif,0.240887867407,0.0018374654734000001,3.36,True,0.0,IrHgN3,6.396803330025537,6.396803330025537,0.0
2054,perov_2054.cif,0.244254801825,0.0018374654734000001,1.18,True,1.347376126059089,GeVN3,5.764116010782659,5.764116010782659,0.0
2055,perov_2055.cif,0.209849394562,0.0018374654734000001,4.78,True,1.7155044859050896,ReRbN3,5.145086641391751,5.145086641391751,0.0
2056,perov_2056.cif,0.301393564876,0.0018374654734000001,0.8,True,-0.00034989022787712553,ZrTaO2S,5.549490541089663,5.549490541089663,0.0
2057,perov_2057.cif,0.32819759115499997,0.0018374654734000001,1.36,True,0.3160984873191026,PbIrN3,6.031409534357401,6.031409534357401,0.0
2058,perov_2058.cif,0.257775250299,0.0036749309468000002,1.92,True,3.5490359534268308,ReCuOFN,6.33928826271477,6.33928826271477,0.0
2059,perov_2059.cif,0.255879847708,0.0018374654734000001,0.18,False,-6.906880927476998e-05,SnNbO2N,6.160207061489907,5.620207061489907,0.5
2060,perov_2060.cif,0.242680983362,0.0018374654734000001,1.32,True,0.4049197629134937,OsGeO2S,6.024061619652794,6.024061619652794,0.0
2061,perov_2061.cif,0.29546303004999996,0.0018374654734000001,1.54,True,1.8658573425563727,MoPtON2,6.12853569614304,6.12853569614304,0.0
2062,perov_2062.cif,0.183711303882,0.0018374654734000001,2.22,True,2.9981389587788705,GaLaN3,5.175496637603373,5.175496637603373,0.0
2063,perov_2063.cif,0.136441328795,0.0018374654734000001,1.04,True,1.3059405327404858,RbGaO2N,4.987673770783379,4.987673770783379,0.0
2064,perov_2064.cif,0.0505638513242,0.0018374654734000001,2.48,True,0.0,PbKO2S,5.060915205693856,5.060915205693856,0.0
2065,perov_2065.cif,0.24771411915999997,0.0018374654734000001,0.78,True,0.0011829878033360328,OsTiON2,5.826373885929643,5.826373885929643,0.0
2066,perov_2066.cif,0.221435934332,0.0036749309468000002,0.72,True,1.4626180945719531,RhNbO2F,6.328690039883837,6.328690039883837,0.0
2067,perov_2067.cif,0.213544086105,0.0036749309468000002,1.22,True,3.4244772571007265,FeTeO2F,6.665424477016888,6.665424477016888,0.0
2068,perov_2068.cif,0.161476451675,0.0036749309468000002,1.68,True,2.926368291283964,RhBiOFN,6.318559490358718,6.318559490358718,0.0
2069,perov_2069.cif,0.248328264362,0.0018374654734000001,1.36,True,2.8743290851714347,FeVN3,5.621941904002976,5.621941904002976,0.0
2070,perov_2070.cif,0.25733819198,0.0018374654734000001,0.82,True,1.99996326794162,GeMnO2N,5.884167500156418,5.884167500156418,0.0
2071,perov_2071.cif,0.155660153394,0.0018374654734000001,1.04,True,1.9998371773369532,BaMgO2S,5.1275426302714715,5.1275426302714715,0.0
2072,perov_2072.cif,0.128634125358,0.0036749309468000002,1.32,True,2.00042301686789,CrLiO2F,5.808045680894001,5.808045680894001,0.0
2073,perov_2073.cif,0.204564445957,0.0018374654734000001,0.34,True,-4.61952631349395,MnSnO3,5.846275333177606,5.846275333177606,0.0
2074,perov_2074.cif,0.21372135864,0.0018374654734000001,0.62,True,3.57094577756208,SrFeO2S,4.91345828500091,4.91345828500091,0.0
2075,perov_2075.cif,0.285777766929,0.0036749309468000002,1.5,True,1.5685001015643003,TiIrOFN,6.371300570900327,6.371300570900327,0.0
2076,perov_2076.cif,0.165401045722,0.0036749309468000002,0.74,True,-1.7491705513960234e-15,GaTeO2F,6.605542115260267,6.105542115260267,0.5
2077,perov_2077.cif,0.31394686354400003,0.0018374654734000001,0.76,True,-0.3780100119898934,TaGaO3,5.619061076952656,5.619061076952656,0.0
2078,perov_2078.cif,0.29719466382599996,0.0018374654734000001,1.12,True,0.8729942204356222,ZrScO2S,5.326545455124241,5.326545455124241,0.0
2079,perov_2079.cif,0.126666635701,0.0018374654734000001,1.4,True,1.9999080463186625,CsInO2S,4.740642756442786,4.740642756442786,0.0
2080,perov_2080.cif,0.12271672552200001,0.0018374654734000001,1.52,True,0.32010731308743,MgCdO3,5.890660378060829,5.890660378060829,0.0