,id,fermi level,fermi width,e_form,gap is direct,mu_b,formula,vbm,cbm,gap gllbsc
1051,perov_1051.cif,0.125660872245,0.0036749309468000002,1.1,True,0.0,PbBaO2F,5.725652883251205,5.725652883251205,0.0
1052,perov_1052.cif,0.199687454448,0.0018374654734000001,0.52,True,0.8251414487260433,PbGaO3,5.5602830685390865,5.5602830685390865,0.0
1053,perov_1053.cif,0.17645637484,0.0018374654734000001,1.62,False,-0.00045704727177295145,AlCaO2N,5.434585633563326,4.424585633563326,1.0
1054,perov_1054.cif,0.248213870473,0.0018374654734000001,1.82,True,-0.3780836834745423,PtPtO2N,6.627762702263372,6.627762702263372,0.0
1055,perov_1055.cif,0.0820443120876,0.0018374654734000001,2.5,True,3.000016123955524,AsNaO2N,5.739169066975642,5.739169066975642,0.0
1056,perov_1056.cif,0.208193822045,0.0036749309468000002,0.76,True,0.9775846790626056,CaGaOFN,5.25618394244954,5.25618394244954,0.0
1057,perov_1057.cif,0.0768016573259,0.0018374654734000001,1.86,True,8.168407771828098e-11,AgHgO2S,6.060197278399447,6.060197278399447,0.0
1058,perov_1058.cif,0.28867371743799997,0.0018374654734000001,1.2,True,-0.0018337572728798878,AlGeO3,5.753466100092961,5.753466100092961,0.0
1059,perov_1059.cif,0.225572789227,0.0018374654734000001,0.96,True,0.00027004578012679303,SbPbO3,6.0424804465471365,6.0424804465471365,0.0
1060,perov_1060.cif,0.155123289557,0.0018374654734000001,0.88,True,1.9900434866696912,KRhO3,5.364555590273549,5.364555590273549,0.0
1061,perov_1061.cif,0.177857605481,0.0018374654734000001,0.7,True,-0.02263045449374877,NiTiO2N,5.744857055415598,5.744857055415598,0.0
1062,perov_1062.cif,0.274316786451,0.0036749309468000002,0.68,True,2.4513865913044087e-15,HgReOFN,6.536104670183461,6.536104670183461,0.0
1063,perov_1063.cif,0.31531753726100004,0.0036749309468000002,1.36,True,0.016868271377457944,YOsOFN,6.162769602236807,6.162769602236807,0.0
1064,perov_1064.cif,0.170932078204,0.0036749309468000002,1.62,True,0.9308829321744092,SiGaOFN,6.133486440784391,6.133486440784391,0.0
1065,perov_1065.cif,0.26914851178599997,0.0036749309468000002,1.46,True,4.758800572751508,ReNbOFN,6.197219747685011,6.197219747685011,0.0
1066,perov_1066.cif,0.23151609763099998,0.0018374654734000001,1.24,True,-0.014637519008252881,SnCuO2N,6.025237446810078,6.025237446810078,0.0
1067,perov_1067.cif,0.187733326003,0.0018374654734000001,1.1,True,0.4599347309767907,SnPdO2S,5.832325592992857,5.832325592992857,0.0
1068,perov_1068.cif,0.18462057947500002,0.0036749309468000002,1.86,True,5.4470046148830775,ReBiO2F,6.274879283950932,6.274879283950932,0.0
1069,perov_1069.cif,0.185789596144,0.0018374654734000001,0.74,True,0.0,AuVO2S,5.928867301844955,5.928867301844955,0.0
1070,perov_1070.cif,0.11752248237,0.0036749309468000002,0.78,True,0.9978978897022908,PbCaO2F,5.504052817837181,5.504052817837181,0.0
1071,perov_1071.cif,0.212934397385,0.0018374654734000001,1.6,True,0.00478623796546529,PtBeO2S,6.261614441630647,6.261614441630647,0.0
1072,perov_1072.cif,0.15998737373400002,0.0036749309468000002,1.3,True,1.4881250937376294,GeZnOFN,6.506981797464782,6.506981797464782,0.0
1073,perov_1073.cif,0.258152068297,0.0018374654734000001,1.4,True,0.3475511099988538,ZnSiN3,6.054998491133526,6.054998491133526,0.0
1074,perov_1074.cif,0.297457069674,0.0018374654734000001,1.42,True,3.2725219606894425,FeOsON2,6.019213364300388,6.019213364300388,0.0
1075,perov_1075.cif,0.147178291887,0.0036749309468000002,1.16,True,4.304457234015146,KCoOFN,5.6834597361019465,5.6834597361019465,0.0
1076,perov_1076.cif,0.220854833648,0.0018374654734000001,1.94,True,-0.44790860887371386,AlBaO2N,5.128056930081682,5.128056930081682,0.0
1077,perov_1077.cif,0.14356125615,0.0018374654734000001,1.56,True,0.0011711759499846153,GeHgO3,6.341071536059616,6.341071536059616,0.0
1078,perov_1078.cif,0.275975230374,0.0018374654734000001,1.74,True,-0.2103524978726043,ScBiO2N,5.6304425352875755,5.6304425352875755,0.0
1079,perov_1079.cif,0.394488762566,0.0018374654734000001,0.6,True,2.65777362592604,LaFeN3,5.427842557469614,5.427842557469614,0.0
1080,perov_1080.cif,0.165029900726,0.0036749309468000002,1.44,True,3.453888551527335,RhCuO2F,6.473772453071747,6.473772453071747,0.0
1081,perov_1081.cif,0.13056213789999999,0.0018374654734000001,2.08,True,1.408241330563321,AuTlO3,6.702342500924986,6.702342500924986,0.0
1082,perov_1082.cif,0.160684881587,0.0018374654734000001,1.68,True,4.455572379295807,FeAuO3,6.309825589976363,6.309825589976363,0.0
1083,perov_1083.cif,0.235746219521,0.0018374654734000001,1.42,True,0.002421189936065105,MgSbON2,5.91462699137527,5.91462699137527,0.0
1084,perov_1084.cif,0.116686115079,0.0018374654734000001,2.42,True,0.7024458948620893,CdNaN3,5.459719913759439,5.459719913759439,0.0
1085,perov_1085.cif,0.08653829817700001,0.0036749309468000002,2.74,True,0.0,VNaOFN,5.667421266196214,5.667421266196214,0.0
1086,perov_1086.cif,0.187062558972,0.0018374654734000001,0.6,True,0.9984386081134744,PbScO3,5.60810581430457,5.60810581430457,0.0
1087,perov_1087.cif,0.11684497137199999,0.0018374654734000001,0.9,True,1.999838238618569,LiZrO2N,5.382182855538915,5.382182855538915,0.0
1088,perov_1088.cif,0.280362965375,0.0036749309468000002,1.08,True,1.5835046087409668,RhReO2F,6.331851225296984,6.331851225296984,0.0
1089,perov_1089.cif,0.23245250977499998,0.0018374654734000001,0.18,True,-1.4444477133730194,VVO3,5.605288702756336,5.605288702756336,0.0
1090,perov_1090.cif,0.230209426369,0.0036749309468000002,1.12,False,-1.7672393916574236e-15,ScInOFN,6.427768165417856,4.927768165417856,1.5
1091,perov_1091.cif,0.456526731893,0.0018374654734000001,0.96,False,-0.0007237993673637284,ZrBO2N,6.957455483292552,4.597455483292553,2.4
1092,perov_1092.cif,0.249316411156,0.0018374654734000001,0.9,True,3.379942968462423,FeMoO2S,5.615574529432101,5.615574529432101,0.0
1093,perov_1093.cif,0.182100023992,0.0018374654734000001,1.68,True,0.0,SrInON2,4.769261081638295,4.769261081638295,0.0
1094,perov_1094.cif,0.217849203361,0.0018374654734000001,1.72,True,0.004255834591553764,SbTlON2,6.3831577309901855,6.3831577309901855,0.0
1095,perov_1095.cif,0.277980078146,0.0036749309468000002,0.96,True,4.996230500125487,MoZrO2F,6.090337142506272,6.090337142506272,0.0
1096,perov_1096.cif,0.363577312266,0.0018374654734000001,0.5,True,0.001854366984925804,SnReO2N,5.893149224327061,5.893149224327061,0.0
1097,perov_1097.cif,0.140439150367,0.0018374654734000001,1.36,True,-4.0567234034227815e-05,TlTlO2S,6.3871189634797325,6.3871189634797325,0.0
1098,perov_1098.cif,0.298170099481,0.0018374654734000001,0.8,True,0.5623872104688097,ZrHfO2S,5.348687440930479,5.348687440930479,0.0
1099,perov_1099.cif,0.165126288226,0.0018374654734000001,1.8,True,3.891292410542132,CuZrN3,5.7464088998238285,5.7464088998238285,0.0
1100,perov_1100.cif,0.204410566459,0.0018374654734000001,2.62,True,0.0003362936999274491,CsAgON2,5.218409745555262,5.218409745555262,0.0
1101,perov_1101.cif,0.24658008425,0.0018374654734000001,1.02,True,0.02320764646955098,WScON2,5.667774830332784,5.667774830332784,0.0
1102,perov_1102.cif,0.297934611756,0.0036749309468000002,1.34,True,-6.1643096699519965e-15,YRhO2F,6.0486710160831105,6.0486710160831105,0.0
1103,perov_1103.cif,0.31182894443000003,0.0018374654734000001,1.22,True,0.018380905746155918,TeNiON2,6.260049448922226,6.260049448922226,0.0
1104,perov_1104.cif,0.16677527935,0.0036749309468000002,1.3,True,1.5148939901461882,HgCuOFN,6.682604006104494,6.682604006104494,0.0
1105,perov_1105.cif,0.099412212892,0.0036749309468000002,0.38,True,3.01047926076814,LiMnO2F,5.808045680894001,5.808045680894001,0.0
1106,perov_1106.cif,0.222442279151,0.0018374654734000001,1.42,True,0.7076603226362224,PtRuO2S,6.155872401240476,6.155872401240476,0.0
1107,perov_1107.cif,0.414583610956,0.0036749309468000002,1.02,True,2.0768062667034767e-15,LaWO2F,6.010354114614693,6.010354114614693,0.0
1108,perov_1108.cif,0.312455497237,0.0018374654734000001,0.8,True,0.002199101360737643,TeTiO3,6.0472131067408395,6.0472131067408395,0.0
1109,perov_1109.cif,0.29862103758499997,0.0018374654734000001,1.7,True,0.00031276474975427965,IrRhN3,6.153505442350575,6.153505442350575,0.0
1110,perov_1110.cif,0.309230056724,0.0018374654734000001,2.12,True,1.592436765189589,TePdN3,6.230273580681231,6.230273580681231,0.0
1111,perov_1111.cif,0.248240049478,0.0018374654734000001,1.4,True,0.05363318946078088,GePtON2,6.334252404483721,6.334252404483721,0.0
1112,perov_1112.cif,0.211189871388,0.0036749309468000002,1.02,True,-0.07398769236961378,AlHfOFN,5.74126913117684,5.74126913117684,0.0
1113,perov_1113.cif,0.249696657376,0.0018374654734000001,1.06,True,-0.07346258446018891,MgCrON2,5.609027911058131,5.609027911058131,0.0
1114,perov_1114.cif,0.19993591554499998,0.0018374654734000001,1.02,True,2.07384830519056,MgCoO2N,5.8146665867601435,5.8146665867601435,0.0
1115,perov_1115.cif,0.293594902409,0.0018374654734000001,0.86,True,-0.3983100874626517,TaGaO2N,5.579710156346248,5.579710156346248,0.0
1116,perov_1116.cif,0.241564129116,0.0018374654734000001,1.58,True,0.44965427185387696,OsInON2,5.7030459424221815,5.7030459424221815,0.0
1117,perov_1117.cif,0.282097702461,0.0036749309468000002,1.18,True,-3.861842759762477e-15,SnIrOFN,6.65821731519568,6.65821731519568,0.0
1118,perov_1118.cif,0.306828020468,0.0018374654734000001,1.6,True,0.002981692462711294,CaTeN3,5.411524781216488,5.411524781216488,0.0
1119,perov_1119.cif,0.352230641764,0.0018374654734000001,1.06,True,0.18132915757269275,MoMnO2N,5.693068141911622,5.693068141911622,0.0
1120,perov_1120.cif,0.42093731003799995,0.0036749309468000002,0.5,True,1.9722588040915023,LaCoO2F,5.982782519865316,5.982782519865316,0.0
1121,perov_1121.cif,0.273886053398,0.0036749309468000002,1.0,True,0.876447138821611,NiReO2F,6.361031499762513,6.361031499762513,0.0
1122,perov_1122.cif,0.157069765997,0.0036749309468000002,0.48,True,1.0788491450900403e-15,GaSnO2F,6.052458540039215,6.052458540039215,0.0
1123,perov_1123.cif,0.0783211182605,0.0036749309468000002,3.08,True,0.0,OsBaO2F,5.99372574455593,5.99372574455593,0.0
1124,perov_1124.cif,0.266263318884,0.0018374654734000001,0.82,True,1.9313972429933304,BiCoO2S,5.740346694903606,5.740346694903606,0.0
1125,perov_1125.cif,0.287270975465,0.0018374654734000001,0.56,True,1.6033539235310281,InCrO2N,5.437581751111949,5.437581751111949,0.0
1126,perov_1126.cif,0.292400083311,0.0018374654734000001,1.28,True,1.829833825266604,InCoON2,5.558259122769961,5.558259122769961,0.0
1127,perov_1127.cif,0.20794660649500002,0.0018374654734000001,0.78,True,0.2445661531205019,GaAlO3,5.350667794266503,5.350667794266503,0.0
1128,perov_1128.cif,0.311649060792,0.0018374654734000001,1.36,True,0.0007584370069864121,ScSbN3,5.738762973799394,5.738762973799394,0.0
1129,perov_1129.cif,0.176681968261,0.0018374654734000001,2.06,True,-0.0010847309601573131,PdAuON2,6.336944804835925,6.336944804835925,0.0
1130,perov_1130.cif,0.212201320115,0.0018374654734000001,1.26,True,0.4841907559914986,PbBO2S,5.674889978828678,5.674889978828678,0.0
1131,perov_1131.cif,0.247728058496,0.0036749309468000002,0.2,True,-0.4038618341731896,TlMoO2F,6.6120408293763315,6.6120408293763315,0.0
1132,perov_1132.cif,0.259164916604,0.0036749309468000002,1.3,True,-1.8619655851728577e-15,SbRhOFN,6.531276383439459,6.531276383439459,0.0
1133,perov_1133.cif,0.283020922677,0.0018374654734000001,0.64,True,0.17967289543940265,TaZrON2,5.6852531521474425,5.6852531521474425,0.0
1134,perov_1134.cif,0.128421575037,0.0036749309468000002,2.0,True,0.0,FeTlO2F,6.665424477016888,6.665424477016888,0.0
1135,perov_1135.cif,0.12490150740900001,0.0036749309468000002,0.6,True,0.9966745463151164,SrCaO2F,4.818353640891184,4.818353640891184,0.0
1136,perov_1136.cif,0.145350114053,0.0018374654734000001,1.58,True,2.9999965011402936,GeMgO2N,5.8936276253883495,5.8936276253883495,0.0
1137,perov_1137.cif,0.21782886750500002,0.0018374654734000001,1.26,True,1.1662540756440956,CuMnN3,5.77144866733461,5.77144866733461,0.0
1138,perov_1138.cif,0.228723774012,0.0018374654734000001,0.5,True,3.093922292939766,BaMnO2S,5.119312182320284,5.119312182320284,0.0
1139,perov_1139.cif,0.22198903134599998,0.0036749309468000002,1.38,True,2.6088455157790262,RuRuO2F,6.538726043750375,6.538726043750375,0.0
1140,perov_1140.cif,0.167722071745,0.0018374654734000001,1.16,True,-3.8527882514593195,MnZnO3,5.886505794930151,5.886505794930151,0.0
1141,perov_1141.cif,0.27849518019999997,0.0018374654734000001,1.12,True,0.4886613141092048,CdIrO3,6.322167274111062,6.322167274111062,0.0
1142,perov_1142.cif,0.30467218381,0.0018374654734000001,0.14,True,0.009985005904919577,SnNbO3,5.9317477623394606,5.9317477623394606,0.0
1143,perov_1143.cif,0.285362874069,0.0018374654734000001,1.5,True,0.14921557539535255,TeCuO3,6.3715787828520085,6.3715787828520085,0.0
1144,perov_1144.cif,0.20425491875500001,0.0018374654734000001,2.02,True,0.00334218685465616,TlZnON2,6.274212601555057,6.274212601555057,0.0
1145,perov_1145.cif,0.11890167767899999,0.0036749309468000002,2.62,True,0.0,OsCaO2F,5.761750449484758,5.761750449484758,0.0
1146,perov_1146.cif,0.188119870999,0.0018374654734000001,1.06,True,0.846423496197076,SbZnO2S,5.974429178653594,5.974429178653594,0.0
1147,perov_1147.cif,0.191368545365,0.0018374654734000001,2.66,True,3.9589894260908896,NiLaN3,5.5158515634497975,5.5158515634497975,0.0
1148,perov_1148.cif,0.15480329552799998,0.0036749309468000002,1.24,True,1.4190914820355367,RbPtO2F,5.9871804387372745,5.9871804387372745,0.0
1149,perov_1149.cif,0.310793739526,0.0018374654734000001,1.46,True,0.0031907018980916746,SbSbN3,6.183257628289162,6.183257628289162,0.0
1150,perov_1150.cif,0.25940229108199997,0.0036749309468000002,0.92,True,4.999783529410823,TiCrO2F,5.968710892095367,5.968710892095367,0.0
1151,perov_1151.cif,0.0762104137033,0.0036749309468000002,1.44,True,0.0,NaLaOFN,5.471751730103231,5.471751730103231,0.0
1152,perov_1152.cif,0.105391147927,0.0036749309468000002,0.92,True,0.9662873431278314,CuScO2F,6.154787067129985,6.154787067129985,0.0
1153,perov_1153.cif,0.197119606125,0.0018374654734000001,0.72,False,-1.4905508537244284e-05,AlNbON2,6.366781257176697,4.666781257176698,1.7
1154,perov_1154.cif,0.09548698092170001,0.0018374654734000001,1.26,True,0.0,RbZnO3,5.3652771314788845,5.3652771314788845,0.0
1155,perov_1155.cif,0.22646999481600003,0.0018374654734000001,1.04,True,2.0033404944211988,MoZnO3,5.942400373025744,5.942400373025744,0.0
1156,perov_1156.cif,0.09171859007680001,0.0018374654734000001,1.98,True,-0.0004279916048796833,LiGaON2,5.208540606934012,5.208540606934012,0.0
1157,perov_1157.cif,0.11794162269200001,0.0036749309468000002,3.72,True,0.0,IrCsOFN,5.817723782368529,5.817723782368529,0.0
1158,perov_1158.cif,0.307617189952,0.0018374654734000001,2.24,True,-9.3276349948872e-05,HfCdO2N,5.739267850993558,5.739267850993558,0.0
1159,perov_1159.cif,0.253229457888,0.0018374654734000001,1.86,True,0.0006007521704880503,IrAgN3,6.193062914105983,6.193062914105983,0.0
1160,perov_1160.cif,0.14336362886,0.0036749309468000002,0.88,True,0.0,SrBaO2F,5.012346597962577,5.012346597962577,0.0
1161,perov_1161.cif,0.195588121752,0.0036749309468000002,1.28,True,3.119423542407775,CrRhO2F,6.2374979439293075,6.2374979439293075,0.0
1162,perov_1162.cif,0.19713686585700002,0.0036749309468000002,0.98,True,0.8626405271752287,NaSiOFN,5.993029091444335,5.993029091444335,0.0
1163,perov_1163.cif,0.123188744105,0.0018374654734000001,2.88,True,3.9997943451461406,GeSrON2,5.160958003178191,5.160958003178191,0.0
1164,perov_1164.cif,0.38461763147399997,0.0018374654734000001,0.58,True,0.012572896586632966,BiGeO3,6.045008507865714,6.045008507865714,0.0
1165,perov_1165.cif,0.299163085582,0.0018374654734000001,2.04,True,0.007892874912570848,OsCuN3,6.095902626478042,6.095902626478042,0.0
1166,perov_1166.cif,0.17100002895599997,0.0036749309468000002,2.16,True,0.4219670384943744,BeRuOFN,6.6044665066418835,6.6044665066418835,0.0
1167,perov_1167.cif,0.315109377878,0.0036749309468000002,0.66,True,2.5706768567203565e-08,BiTaOFN,6.358657114445853,6.1586571144458535,0.2
1168,perov_1168.cif,0.175272863316,0.0036749309468000002,0.88,True,5.634449871134528e-16,HgAsOFN,6.911070095712647,6.911070095712647,0.0
1169,perov_1169.cif,0.10711254337300001,0.0036749309468000002,1.28,True,2.9908054727399747,RhYO2F,6.0486710160831105,6.0486710160831105,0.0
1170,perov_1170.cif,0.208262870727,0.0018374654734000001,1.44,True,3.0485007735377603,WBiO2S,5.7668010265239324,5.7668010265239324,0.0
1171,perov_1171.cif,0.18655673086199998,0.0036749309468000002,2.46,True,4.40415073888468,OsPbOFN,6.412209680143228,6.412209680143228,0.0
1172,perov_1172.cif,0.21745779094599998,0.0036749309468000002,1.12,True,-0.0022519630275202773,TeZnO2F,6.7888249022065,6.7888249022065,0.0
1173,perov_1173.cif,0.22275919981400003,0.0018374654734000001,0.58,True,2.0006929676205054,SnCrO2S,5.627018545613702,5.627018545613702,0.0
1174,perov_1174.cif,0.108026011113,0.0018374654734000001,2.9,True,0.0,CsCaON2,4.534674499594656,4.534674499594656,0.0
1175,perov_1175.cif,0.17654028229200003,0.0036749309468000002,1.7,True,0.0,VMgOFN,5.987186368287102,5.987186368287102,0.0
1176,perov_1176.cif,0.202216852975,0.0018374654734000001,1.6,True,0.00467401210409335,ScPbON2,5.529832456644645,5.529832456644645,0.0
1177,perov_1177.cif,0.278323124945,0.0036749309468000002,0.46,True,2.999999954178852,VAlO2F,5.844799840507179,5.844799840507179,0.0
1178,perov_1178.cif,0.19566728589000001,0.0036749309468000002,1.14,True,-0.1400093049952345,SrPbOFN,5.362310313394205,5.362310313394205,0.0
1179,perov_1179.cif,0.125411768324,0.0018374654734000001,0.7,True,-0.0014926307295751635,CuHfO2S,5.575483642600478,5.575483642600478,0.0
1180,perov_1180.cif,0.239185207554,0.0018374654734000001,0.98,True,4.021801363184838,FeNiO2S,5.75270109972712,5.75270109972712,0.0
1181,perov_1181.cif,0.32823635401900003,0.0018374654734000001,1.04,True,-0.08354018041979422,ZrSnO3,5.820910925801806,5.820910925801806,0.0
1182,perov_1182.cif,0.330424703193,0.0018374654734000001,0.46,False,-3.089194747321318e-05,CdSiO3,7.543444097092523,4.813444097092524,2.7
1183,perov_1183.cif,0.170915097014,0.0018374654734000001,2.56,True,4.983670825082369,CsBaON2,4.717246178864324,4.717246178864324,0.0
1184,perov_1184.cif,0.21298975832000003,0.0018374654734000001,2.64,True,4.297335621104999,ReAgO3,5.972861636397204,5.972861636397204,0.0
1185,perov_1185.cif,0.0354431585918,0.0018374654734000001,2.14,True,3.0597049046636613,ZnNaO3,5.581076300451636,5.581076300451636,0.0
1186,perov_1186.cif,0.31625719167599997,0.0018374654734000001,0.76,True,0.7989001393974853,TeMoON2,6.110829265928773,6.110829265928773,0.0
1187,perov_1187.cif,0.28917616151500003,0.0018374654734000001,1.46,True,1.349202201838115,SnPtN3,6.205622837025298,6.205622837025298,0.0
1188,perov_1188.cif,0.14312615051799998,0.0018374654734000001,1.0,True,9.350779507677487e-05,GaTeO2S,5.733509441041952,5.733509441041952,0.0
1189,perov_1189.cif,0.333711025253,0.0036749309468000002,0.9,True,1.995442743732511,ZrScO2F,5.904426305913282,5.904426305913282,0.0
1190,perov_1190.cif,0.284164586217,0.0018374654734000001,1.46,True,0.5588018275236841,OsTiN3,5.785571130261286,5.785571130261286,0.0
1191,perov_1191.cif,0.133121122496,0.0036749309468000002,0.64,True,0.0,CsInO2F,5.25495859068477,5.25495859068477,0.0
1192,perov_1192.cif,0.257745212451,0.0018374654734000001,0.76,True,0.00825472380804726,InReO2S,5.35028948418142,5.35028948418142,0.0
1193,perov_1193.cif,0.282297739066,0.0018374654734000001,0.62,True,2.417144844504986,MoVON2,5.616246761097384,5.616246761097384,0.0
1194,perov_1194.cif,0.00842327055958,0.0036749309468000002,0.94,True,0.0,RbSrO2F,4.878174223038645,4.878174223038645,0.0
1195,perov_1195.cif,0.174735052965,0.0018374654734000001,1.62,True,-2.498888361036728,MoKO2N,5.2239723218612975,5.2239723218612975,0.0
1196,perov_1196.cif,0.22138227793600002,0.0018374654734000001,2.76,True,0.0031838528172656345,PdCsON2,5.220758265743815,5.220758265743815,0.0
1197,perov_1197.cif,0.40685280401699997,0.0018374654734000001,0.7,True,0.008236309104368903,BiReON2,5.799225527794317,5.799225527794317,0.0
1198,perov_1198.cif,0.194927629564,0.0018374654734000001,1.32,True,1.999988264689128,RbVON2,5.070799411099796,5.070799411099796,0.0