,id,fermi level,fermi width,e_form,gap is direct,mu_b,formula,vbm,cbm,gap gllbsc
3850,perov_3850.cif,0.279776191109,0.0018374654734000001,1.22,True,0.01949416221019717,SbPtO3,6.492267003353763,6.492267003353763,0.0
3851,perov_3851.cif,0.312307116923,0.0018374654734000001,0.94,True,2.4927910412081222,CoReO3,5.93471067478779,5.93471067478779,0.0
3852,perov_3852.cif,0.188605155585,0.0036749309468000002,2.04,True,5.479704097990623,RePbO2F,6.206216636707913,6.206216636707913,0.0
3853,perov_3853.cif,0.250784737948,0.0018374654734000001,1.26,True,5.274190961527071,PdFeO3,5.990377543136872,5.990377543136872,0.0
3854,perov_3854.cif,-0.0523885608406,0.0036749309468000002,1.52,True,0.0,RbNaO2F,5.236248872640852,5.236248872640852,0.0
3855,perov_3855.cif,0.16333487615999998,0.0018374654734000001,3.22,True,-0.3996941054650722,ScCsO2S,4.8118733023138525,4.8118733023138525,0.0
3856,perov_3856.cif,0.21752753793000001,0.0018374654734000001,1.34,True,-0.0008011175304691825,ScPbO2N,5.568831614642245,5.568831614642245,0.0
3857,perov_3857.cif,0.24533395878199998,0.0018374654734000001,0.9,True,0.3478876371417031,MgReO2S,5.557905976191484,5.557905976191484,0.0
3858,perov_3858.cif,0.214377271448,0.0018374654734000001,0.9,True,2.274224211822673,SnCoO2S,5.79246541789554,5.79246541789554,0.0
3859,perov_3859.cif,0.0993238587792,0.0018374654734000001,1.7,True,0.0,CsCaO2N,4.56665530347324,4.56665530347324,0.0
3860,perov_3860.cif,0.27515367325,0.0018374654734000001,1.36,True,-0.0007302618560030335,ScPtO3,6.02555865122102,6.02555865122102,0.0
3861,perov_3861.cif,0.167298908684,0.0018374654734000001,1.2,True,0.7160671001939356,PbCdO3,5.934001492733081,5.934001492733081,0.0
3862,perov_3862.cif,0.20946320676600003,0.0018374654734000001,1.88,True,0.0005746135072648424,RhAgN3,5.930494830200332,5.930494830200332,0.0
3863,perov_3863.cif,0.294271437084,0.0018374654734000001,2.32,True,-0.01381541121192438,HfAgO3,5.782351065023486,5.782351065023486,0.0
3864,perov_3864.cif,0.155445890198,0.0036749309468000002,2.3,True,0.03282256514109782,BeRhOFN,6.5446877415601525,6.5446877415601525,0.0
3865,perov_3865.cif,0.259770995899,0.0018374654734000001,1.94,True,0.08984246184778932,BBO3,6.012566635891679,6.012566635891679,0.0
3866,perov_3866.cif,0.0992868536204,0.0018374654734000001,2.32,True,1.6625631362549442,GeSrO2N,5.1973556731190005,5.1973556731190005,0.0
3867,perov_3867.cif,0.0939982052286,0.0018374654734000001,0.84,True,0.9899844836969685,NaZrO2S,5.160185524774452,5.160185524774452,0.0
3868,perov_3868.cif,0.12399276047800001,0.0036749309468000002,1.4,True,2.5558988994436724,KPdOFN,5.7225698013152275,5.7225698013152275,0.0
3869,perov_3869.cif,0.18884546558600002,0.0018374654734000001,1.6,True,0.352103385829464,BeGeN3,6.1307192548730445,6.1307192548730445,0.0
3870,perov_3870.cif,0.204804275852,0.0036749309468000002,1.2,True,2.8646949065586806,CrRuO2F,6.294470856772826,6.294470856772826,0.0
3871,perov_3871.cif,0.203803242541,0.0018374654734000001,1.08,True,0.5615297129385918,AsRuO2S,6.0950004791192764,6.0950004791192764,0.0
3872,perov_3872.cif,0.31702096894000004,0.0018374654734000001,-0.28,False,0.0005530042495706083,BaZrO3,8.405710325654958,2.185710325654958,6.2
3873,perov_3873.cif,0.24022200178199998,0.0036749309468000002,0.78,False,1.7637307754028257e-14,SrBO2F,6.6568797596558715,4.356879759655872,2.3
3874,perov_3874.cif,0.149172184601,0.0018374654734000001,1.98,True,-0.00023101983249713482,GeNaON2,5.539789948103807,5.539789948103807,0.0
3875,perov_3875.cif,0.294679724745,0.0036749309468000002,0.94,True,0.7809119206503523,NbWOFN,6.313330962776991,6.313330962776991,0.0
3876,perov_3876.cif,0.11312032168,0.0018374654734000001,1.98,True,1.431688872270264,TeSrO3,5.422473693263079,5.422473693263079,0.0
3877,perov_3877.cif,0.307258855038,0.0036749309468000002,1.24,True,-9.581667489330343e-14,BiIrOFN,6.598308837745183,6.598308837745183,0.0
3878,perov_3878.cif,0.26431984693300004,0.0036749309468000002,0.96,True,-0.00020825982770768372,YYOFN,5.758121857862745,5.558121857862747,0.2
3879,perov_3879.cif,0.078147576753,0.0018374654734000001,4.64,True,0.0,MnKON2,5.13859536419074,5.13859536419074,0.0
3880,perov_3880.cif,0.19556006318500002,0.0018374654734000001,0.24,True,-3.253163317729783,MnVO2N,5.602656037906227,5.602656037906227,0.0
3881,perov_3881.cif,0.200982617241,0.0018374654734000001,1.38,True,0.9586036045189168,HgRhO3,6.256115779379952,6.256115779379952,0.0
3882,perov_3882.cif,0.197549183164,0.0018374654734000001,1.6,True,0.5107230427643971,SiSnON2,6.056027536900227,6.056027536900227,0.0
3883,perov_3883.cif,0.24229707587699997,0.0018374654734000001,1.56,True,0.013293510377792476,HfSnO2S,5.52994273902491,5.52994273902491,0.0
3884,perov_3884.cif,0.234210183862,0.0018374654734000001,2.12,True,3.999196773741211,BiMgN3,5.681921959364572,5.681921959364572,0.0
3885,perov_3885.cif,0.218487113374,0.0036749309468000002,1.8,True,2.3022799125706417,VPtOFN,6.480187357088012,6.480187357088012,0.0
3886,perov_3886.cif,0.201749750481,0.0036749309468000002,0.7,True,7.228721820978763,MnCoO2F,6.2374979439293075,6.2374979439293075,0.0
3887,perov_3887.cif,0.28027100083900003,0.0036749309468000002,1.1,True,2.306064504674424,CoReO2F,6.331851225296984,6.331851225296984,0.0
3888,perov_3888.cif,0.15616706907800001,0.0036749309468000002,0.84,True,3.394512759085081,AgCoO2F,6.4621706357345365,6.4621706357345365,0.0
3889,perov_3889.cif,0.225669227612,0.0018374654734000001,0.48,True,2.7817604575744594,CrWN3,5.75068752236909,5.75068752236909,0.0
3890,perov_3890.cif,0.213959772337,0.0018374654734000001,1.32,True,0.0,CaSnON2,5.1898043636037405,5.1898043636037405,0.0
3891,perov_3891.cif,0.102501909356,0.0018374654734000001,1.0,True,0.010720449989808149,LiBiO3,5.553396077859413,5.553396077859413,0.0
3892,perov_3892.cif,0.241592401826,0.0018374654734000001,1.12,True,6.86742003352947e-06,IrInO2S,5.6657402173583575,5.6657402173583575,0.0
3893,perov_3893.cif,0.00865242727584,0.0018374654734000001,3.8,True,0.0,RbKON2,4.683591447265899,4.683591447265899,0.0
3894,perov_3894.cif,0.18612980646699998,0.0018374654734000001,0.4,True,0.9999987285114218,RbVO2N,5.106561237331982,5.106561237331982,0.0
3895,perov_3895.cif,0.18636328499699997,0.0036749309468000002,2.42,True,3.79188643337882,ReAgOFN,6.3279274580208975,6.3279274580208975,0.0
3896,perov_3896.cif,0.202038073228,0.0018374654734000001,2.02,True,0.5462563527242139,PdCsO2N,5.257577677194223,5.257577677194223,0.0
3897,perov_3897.cif,0.19686049169300002,0.0018374654734000001,4.04,True,-1.7385230679544081,MoKON2,5.187388252517256,5.187388252517256,0.0
3898,perov_3898.cif,0.39892559632299995,0.0018374654734000001,0.72,True,0.018888021403284938,BiReO2N,5.840124581137319,5.840124581137319,0.0
3899,perov_3899.cif,0.297377915662,0.0018374654734000001,0.96,True,-3.2711680637911997,MoVO2N,5.655855356205246,5.655855356205246,0.0
3900,perov_3900.cif,0.148453817376,0.0018374654734000001,2.56,True,0.6531425850940575,BeTlON2,6.3962649414717765,6.3962649414717765,0.0
3901,perov_3901.cif,0.145342868202,0.0018374654734000001,1.16,True,0.0002023624929385904,PdPbO2S,5.7166024339480375,5.7166024339480375,0.0
3902,perov_3902.cif,0.25365516256,0.0018374654734000001,1.6,True,-0.00119766853762841,RhRhN3,5.892614481656334,5.892614481656334,0.0
3903,perov_3903.cif,0.34867745679799994,0.0018374654734000001,1.86,True,0.003968390288342505,HfRhO3,5.745416967613701,5.745416967613701,0.0
3904,perov_3904.cif,0.233274888596,0.0036749309468000002,1.2,True,1.311210191090595e-06,AuOsO2F,6.987230508293997,6.987230508293997,0.0
3905,perov_3905.cif,0.168810375893,0.0036749309468000002,0.76,True,0.9809377064388478,AgHfOFN,6.126091696701274,6.126091696701274,0.0
3906,perov_3906.cif,0.10316599902899999,0.0018374654734000001,1.6,True,0.4854748388858604,LiPtO2S,5.680157860082649,5.680157860082649,0.0
3907,perov_3907.cif,0.220610275066,0.0018374654734000001,1.74,True,0.8280102529903318,HfTlO2S,5.806860755897522,5.806860755897522,0.0
3908,perov_3908.cif,0.199520566509,0.0018374654734000001,1.42,True,-0.5381452282175085,CuVN3,5.7337235466932865,5.7337235466932865,0.0
3909,perov_3909.cif,0.190833739036,0.0018374654734000001,2.18,True,0.0,CaTlON2,5.449689574020836,5.449689574020836,0.0
3910,perov_3910.cif,0.21844437022799998,0.0036749309468000002,0.86,True,5.040621459221319,MnHfOFN,5.913103586462817,5.913103586462817,0.0
3911,perov_3911.cif,0.122839873787,0.0036749309468000002,2.18,True,3.1405233486384314,PtCdOFN,6.754727099351006,6.754727099351006,0.0
3912,perov_3912.cif,0.140867635797,0.0036749309468000002,1.34,False,-6.8832823166257584e-18,ZnCaOFN,6.0145190751549436,5.214519075154944,0.8
3913,perov_3913.cif,0.0168073795421,0.0036749309468000002,3.3,True,0.0,BBaOFN,5.797949663083526,5.797949663083526,0.0
3914,perov_3914.cif,0.241597924393,0.0036749309468000002,0.48,True,0.3588784317157518,GaWO2F,6.080351236046343,6.080351236046343,0.0
3915,perov_3915.cif,0.222301212526,0.0018374654734000001,1.06,True,0.2527746513205553,MgBO3,5.852948431565576,5.852948431565576,0.0
3916,perov_3916.cif,0.165594310292,0.0018374654734000001,1.12,True,0.03303999962400539,SrCuO2S,5.011153075834065,5.011153075834065,0.0
3917,perov_3917.cif,0.232477458193,0.0018374654734000001,1.16,True,1.073749373549454,SrPdO2N,5.163008903518121,5.163008903518121,0.0
3918,perov_3918.cif,0.135396592713,0.0018374654734000001,1.76,True,-0.0051560742299944645,BeSnON2,6.09123937302065,6.09123937302065,0.0
3919,perov_3919.cif,0.262588091013,0.0036749309468000002,0.08,True,-1.8764896400851996,PbVO2F,6.073773002128066,6.073773002128066,0.0
3920,perov_3920.cif,0.288216070284,0.0036749309468000002,1.66,True,0.97473546658712,ReFeOFN,6.215700850499486,6.215700850499486,0.0
3921,perov_3921.cif,0.315506854498,0.0036749309468000002,1.52,True,2.089021507907251,NbReO2F,6.240925656314379,6.240925656314379,0.0
3922,perov_3922.cif,0.256206255896,0.0018374654734000001,0.6,False,1.7063309165621384e-07,PtWON2,7.1281882520014115,5.428188252001413,1.7
3923,perov_3923.cif,0.176559899819,0.0018374654734000001,2.4,True,0.0,VLaO2N,5.3738651154228165,5.3738651154228165,0.0
3924,perov_3924.cif,0.334100080952,0.0036749309468000002,0.84,False,-2.4703262750836263e-15,GeSiOFN,7.595215339335115,5.595215339335115,2.0
3925,perov_3925.cif,0.350695778287,0.0018374654734000001,0.16,True,0.13739335090068036,CaTaO3,5.213366935736246,5.213366935736246,0.0
3926,perov_3926.cif,0.207130540512,0.0018374654734000001,1.42,True,0.998848005767373,TaMgO2S,5.582633178162289,5.582633178162289,0.0
3927,perov_3927.cif,0.143896509558,0.0018374654734000001,1.3,True,0.0,RuYO3,5.721074788348838,5.721074788348838,0.0
3928,perov_3928.cif,0.0463195829293,0.0036749309468000002,2.18,True,0.0,ZnBaOFN,5.8405666505507625,5.8405666505507625,0.0
3929,perov_3929.cif,0.102244378356,0.0018374654734000001,1.8,True,0.6368838237665844,LiBeO2N,5.711857811651415,5.711857811651415,0.0
3930,perov_3930.cif,0.0014059937400000002,0.0036749309468000002,3.26,True,0.0,BCaOFN,5.573551493860779,5.573551493860779,0.0
3931,perov_3931.cif,0.11679652269200001,0.0018374654734000001,2.1,True,-0.14403643293396484,KPbON2,5.184725320798963,5.184725320798963,0.0
3932,perov_3932.cif,0.248171031268,0.0018374654734000001,1.42,True,0.0027522196396780885,PdRuN3,5.987356965010388,5.987356965010388,0.0
3933,perov_3933.cif,0.18504324474,0.0018374654734000001,2.36,True,2.1557989854101294,AlScN3,5.284099007728472,5.284099007728472,0.0
3934,perov_3934.cif,0.10538334526399999,0.0018374654734000001,2.8,True,-0.13847020464109988,NaSrON2,4.689728820270407,4.689728820270407,0.0
3935,perov_3935.cif,0.198073884976,0.0018374654734000001,1.96,True,0.0,RuHfN3,5.676936351836826,5.676936351836826,0.0
3936,perov_3936.cif,0.243954738427,0.0036749309468000002,0.74,True,9.294325700523328e-15,AuWOFN,6.793314504679574,6.793314504679574,0.0
3937,perov_3937.cif,0.263715012305,0.0018374654734000001,2.06,True,-1.9596949643788943,OsPdO2N,6.173886577789108,6.173886577789108,0.0
3938,perov_3938.cif,0.22717740693500002,0.0018374654734000001,2.26,True,-0.011694655772240006,OsCuO2S,5.992298539918632,5.992298539918632,0.0
3939,perov_3939.cif,0.300140877616,0.0036749309468000002,1.04,True,2.993952521455689,MoBeO2F,6.463388687587052,6.463388687587052,0.0
3940,perov_3940.cif,0.31250087997,0.0036749309468000002,1.64,True,4.735682656429009,ReGeOFN,6.372890613666595,6.372890613666595,0.0
3941,perov_3941.cif,0.194881563748,0.0018374654734000001,2.4,True,0.2601175429724485,SiTlON2,6.359289833598084,6.359289833598084,0.0
3942,perov_3942.cif,0.186410907102,0.0018374654734000001,2.1,True,1.5511314929483253,HgAuO2N,6.588615079129523,6.588615079129523,0.0
3943,perov_3943.cif,0.021376883026099996,0.0018374654734000001,2.96,True,2.7646133881731316e-05,MgKO2S,5.023950990813705,5.023950990813705,0.0
3944,perov_3944.cif,0.337420817949,0.0018374654734000001,1.1,True,0.5176116674239689,YBO2N,5.626968289299665,5.626968289299665,0.0
3945,perov_3945.cif,0.208397878414,0.0018374654734000001,1.66,True,0.00020759698392325282,SiZnO2S,5.952089598680477,5.952089598680477,0.0
3946,perov_3946.cif,0.135013579657,0.0018374654734000001,1.14,True,2.0041784685024417,RbMnO2S,4.982276512488887,4.982276512488887,0.0
3947,perov_3947.cif,0.254927156732,0.0018374654734000001,1.54,True,0.005588494967382117,MgIrN3,5.987356965010386,5.987356965010386,0.0
3948,perov_3948.cif,0.014216971390299999,0.0018374654734000001,1.78,True,1.6015602356197256,NaNaO2N,5.069473026963241,5.069473026963241,0.0
3949,perov_3949.cif,0.137359535108,0.0018374654734000001,0.9,True,0.937274290319074,GeGaO2S,5.534235417882749,5.534235417882749,0.0
3950,perov_3950.cif,0.29733912851100003,0.0018374654734000001,0.7,True,0.02871858707414532,PbReO2S,5.598798817535533,5.598798817535533,0.0
3951,perov_3951.cif,0.34681058022,0.0018374654734000001,2.0,True,1.97580369644929,IrAsO2N,6.507112241688097,6.507112241688097,0.0
3952,perov_3952.cif,0.236856473787,0.0036749309468000002,1.24,True,4.6764407102273243e-07,CaRhOFN,5.576147466805134,5.576147466805134,0.0
3953,perov_3953.cif,0.213284408254,0.0018374654734000001,0.46,True,3.7778149461246873,MnNbON2,5.681896858030707,5.681896858030707,0.0
3954,perov_3954.cif,0.301327331727,0.0036749309468000002,1.48,True,4.55912813269464e-15,HfMoO2F,6.01134887701851,6.01134887701851,0.0
3955,perov_3955.cif,0.0621407627009,0.0018374654734000001,4.02,True,0.0,IrRbO2S,5.355838715670499,5.355838715670499,0.0
3956,perov_3956.cif,0.17018641111900001,0.0018374654734000001,0.82,True,-0.00020736977153953045,AgNbON2,5.886556975457419,5.886556975457419,0.0
3957,perov_3957.cif,0.30262991653,0.0036749309468000002,1.62,True,1.6070443925569264e-11,ZrIrO2F,6.485398466243107,6.485398466243107,0.0
3958,perov_3958.cif,0.283451497143,0.0018374654734000001,0.74,True,1.964911449770529,BaNbN3,5.283961001030844,5.283961001030844,0.0
3959,perov_3959.cif,0.199446640983,0.0036749309468000002,2.08,True,2.838309255058835e-15,SiRhOFN,6.5068546409212455,6.5068546409212455,0.0
3960,perov_3960.cif,0.320046543668,0.0018374654734000001,1.04,True,0.9849080179638072,TeCoO3,6.3195353237416745,6.3195353237416745,0.0
3961,perov_3961.cif,0.385371966637,0.0018374654734000001,-0.1,True,9.138904090204724e-06,LaAlO3,8.454070802777697,2.1240708027776973,6.3
3962,perov_3962.cif,0.147472720107,0.0018374654734000001,1.72,True,3.411949882798758,TlCdO2N,6.312771748546028,6.312771748546028,0.0
3963,perov_3963.cif,0.173968459296,0.0018374654734000001,2.1,True,0.7810418313709206,PtAuO3,6.721762870010804,6.721762870010804,0.0
3964,perov_3964.cif,0.22181945876400003,0.0018374654734000001,1.12,True,-0.11415590144876547,IrSbO2S,6.196303283682567,6.196303283682567,0.0
3965,perov_3965.cif,0.335800711651,0.0018374654734000001,1.2,True,-0.2456920487410984,TaBeON2,6.033492079313174,6.033492079313174,0.0
3966,perov_3966.cif,0.288753754608,0.0018374654734000001,1.48,True,0.017334195130416674,HfZnON2,5.704211732777656,5.704211732777656,0.0
3967,perov_3967.cif,0.267234203563,0.0036749309468000002,0.9,True,2.551093465435165e-11,BaPtO2F,6.151855618801489,6.151855618801489,0.0
3968,perov_3968.cif,0.175471923131,0.0018374654734000001,1.04,False,-2.696957450528527e-05,CaZnO2S,5.350733175926656,4.850733175926656,0.5
3969,perov_3969.cif,0.304456389053,0.0018374654734000001,1.44,True,1.9566229872380565,SrSiN3,5.159980212441252,5.159980212441252,0.0
3970,perov_3970.cif,0.273587374977,0.0018374654734000001,1.26,True,-1.3848145026369765,RuMnO2N,5.858358752799063,5.858358752799063,0.0
3971,perov_3971.cif,0.311135446567,0.0018374654734000001,1.34,True,-0.002288200464377005,SnBO2N,5.973240790887443,5.973240790887443,0.0
3972,perov_3972.cif,0.341284745492,0.0036749309468000002,0.46,True,5.502016923494513e-15,BaMoOFN,5.6884756517411095,5.6884756517411095,0.0
3973,perov_3973.cif,0.15217953234099998,0.0036749309468000002,2.02,True,2.4592489382318267e-15,AlPdO2F,6.0979118927569145,6.0979118927569145,0.0
3974,perov_3974.cif,0.03700442379030001,0.0018374654734000001,2.74,True,0.0,RhBaO2S,5.26983135724986,5.26983135724986,0.0
3975,perov_3975.cif,0.251150950529,0.0036749309468000002,1.24,True,-2.4175479982402008e-15,GaBOFN,6.007274501410401,6.007274501410401,0.0
3976,perov_3976.cif,0.21543946828299998,0.0018374654734000001,1.2,True,2.79996633531908,AlFeON2,5.533233183325828,5.533233183325828,0.0
3977,perov_3977.cif,0.09856487872570001,0.0018374654734000001,1.46,True,2.9999508087164153,LiBeO3,5.752140703945693,5.752140703945693,0.0
3978,perov_3978.cif,0.307410491846,0.0018374654734000001,1.54,True,-0.2255013181779453,LaAgON2,5.564815143894188,5.564815143894188,0.0
3979,perov_3979.cif,0.241700063209,0.0018374654734000001,2.4,True,-1.6154897709795248,NbHgO2N,6.123094632558867,6.123094632558867,0.0
3980,perov_3980.cif,0.240901005711,0.0036749309468000002,2.12,True,0.8637054112628668,SiOsO2F,6.723436364487048,6.723436364487048,0.0
3981,perov_3981.cif,0.151068198948,0.0018374654734000001,1.16,False,-0.002344711987587097,NiCaO2S,5.189218988075883,4.989218988075884,0.2
3982,perov_3982.cif,0.374477430492,0.0036749309468000002,1.02,True,1.6042334388548731,ZrTiOFN,5.901197082883719,5.901197082883719,0.0
3983,perov_3983.cif,0.352551701118,0.0036749309468000002,0.78,True,1.6292469130263495e-05,YGaO2F,5.701593736026464,5.701593736026464,0.0
3984,perov_3984.cif,0.146728525818,0.0036749309468000002,1.2,True,1.142648640765394,InPbOFN,5.853535847432666,5.853535847432666,0.0
3985,perov_3985.cif,0.18708021475,0.0018374654734000001,0.84,True,2.8900498020313723,VSnO2S,5.590237493624848,5.590237493624848,0.0
3986,perov_3986.cif,0.270493149102,0.0036749309468000002,1.58,True,-0.475590197340957,HfPtOFN,6.410293849539751,6.410293849539751,0.0
3987,perov_3987.cif,0.0649898997954,0.0036749309468000002,1.74,True,1.819099490816264,LiTlOFN,6.2342439331387896,6.2342439331387896,0.0
3988,perov_3988.cif,0.151582376681,0.0018374654734000001,1.14,True,0.9258066737340478,RhCaO2S,5.0658729620590695,5.0658729620590695,0.0
3989,perov_3989.cif,0.215279722261,0.0018374654734000001,1.16,True,0.956969895396906,AlGeON2,5.673163922361553,5.673163922361553,0.0
3990,perov_3990.cif,0.298107513011,0.0036749309468000002,1.14,True,1.3313080912836917,CaOsO2F,5.761750449484758,5.761750449484758,0.0
3991,perov_3991.cif,0.19373504414,0.0018374654734000001,0.86,True,0.4310777432060817,AlTiO2S,5.228063969937975,5.228063969937975,0.0
3992,perov_3992.cif,0.234350854729,0.0018374654734000001,1.08,True,1.896811048469722,IrCrO2S,5.876150451116677,5.876150451116677,0.0
3993,perov_3993.cif,0.251647714247,0.0036749309468000002,1.0,True,3.0787950069038423,RuZrO2F,6.267161926911066,6.267161926911066,0.0
3994,perov_3994.cif,0.26904034590799997,0.0018374654734000001,0.62,True,0.0029387690431832425,ScTaO2S,5.454841452345509,5.454841452345509,0.0
3995,perov_3995.cif,0.285859227612,0.0018374654734000001,1.36,True,-0.002603533856086381,TaRhO2N,5.919367928230701,5.919367928230701,0.0
3996,perov_3996.cif,0.277125314335,0.0018374654734000001,1.26,True,0.8684397266305535,TaRuON2,5.931602419850466,5.931602419850466,0.0
3997,perov_3997.cif,0.23194193899999999,0.0018374654734000001,1.34,True,0.014495775221838869,PbPdO2N,5.897755918694128,5.897755918694128,0.0