,id,fermi level,fermi width,e_form,gap is direct,mu_b,formula,vbm,cbm,gap gllbsc
5178,perov_5178.cif,0.277742193671,0.0018374654734000001,1.7,True,0.2738737756151544,PdNiN3,5.960506748313898,5.960506748313898,0.0
5179,perov_5179.cif,0.30051109291,0.0018374654734000001,1.42,True,0.0,CdFeN3,5.860121202886098,5.860121202886098,0.0
5180,perov_5180.cif,0.197284218538,0.0018374654734000001,0.58,False,-5.706327534937827e-07,PbSnO2S,6.1775331518330825,5.177533151833082,1.0
5181,perov_5181.cif,0.223741532814,0.0018374654734000001,0.74,True,1.9986770277825128,NiGeO3,6.128004666673821,6.128004666673821,0.0
5182,perov_5182.cif,0.184443160123,0.0018374654734000001,2.68,True,6.098809369179273,CsCuN3,5.191167859581523,5.191167859581523,0.0
5183,perov_5183.cif,0.305581704186,0.0018374654734000001,1.68,True,1.2202474335466518,IrSiO2S,6.173134072264327,6.173134072264327,0.0
5184,perov_5184.cif,0.23297167764499999,0.0018374654734000001,1.18,True,0.1577294284861157,AsIrO2S,6.4072419733239325,6.207241973323933,0.2
5185,perov_5185.cif,0.275051898536,0.0018374654734000001,1.22,True,0.00028386690143022975,PbBO3,5.8960120768723145,5.8960120768723145,0.0
5186,perov_5186.cif,0.22682615491,0.0018374654734000001,1.82,True,-1.6543283886168474,VPdO2N,5.807074196350036,5.807074196350036,0.0
5187,perov_5187.cif,0.20352836304299998,0.0018374654734000001,0.82,True,3.2228622095611583,CoMoO2S,5.680449195051618,5.680449195051618,0.0
5188,perov_5188.cif,0.21211741890900002,0.0036749309468000002,0.88,True,0.9774502563072752,CaScOFN,5.301391199935878,5.301391199935878,0.0
5189,perov_5189.cif,0.21603768301399998,0.0018374654734000001,0.94,True,-2.0566826130097167,VCuO2S,5.636274944404419,5.636274944404419,0.0
5190,perov_5190.cif,0.368899880565,0.0018374654734000001,1.56,True,1.6090318068011202,HfWO3,5.771894665536238,5.771894665536238,0.0
5191,perov_5191.cif,0.239544083405,0.0036749309468000002,0.88,True,-0.00013988407127398224,MgMoO2F,6.1267098206952815,6.1267098206952815,0.0
5192,perov_5192.cif,0.22046787983000002,0.0036749309468000002,1.32,True,3.614110153468092,CrIrO2F,6.513658353877363,6.513658353877363,0.0
5193,perov_5193.cif,0.0428295657981,0.0036749309468000002,2.86,True,0.0,GeRbOFN,5.722038309729824,5.722038309729824,0.0
5194,perov_5194.cif,0.121679400461,0.0018374654734000001,3.48,True,0.0,LiCsON2,4.828084714101382,4.828084714101382,0.0
5195,perov_5195.cif,0.235284946977,0.0036749309468000002,1.76,True,0.0,IrGaOFN,6.276163811270673,6.276163811270673,0.0
5196,perov_5196.cif,0.259134329364,0.0036749309468000002,1.54,True,1.4659522360859896,PtCoOFN,6.714609390070254,6.714609390070254,0.0
5197,perov_5197.cif,0.167905079456,0.0018374654734000001,1.74,True,-2.417085372036956,VTlO3,6.098906210112907,6.098906210112907,0.0
5198,perov_5198.cif,-0.08697365400589999,0.0036749309468000002,3.54,True,0.0,BNaO2F,5.911103543018812,5.911103543018812,0.0
5199,perov_5199.cif,0.08736061811450001,0.0018374654734000001,1.82,True,1.2803382692162296e-11,KBeO2S,5.3000303509285605,5.3000303509285605,0.0
5200,perov_5200.cif,0.119799593694,0.0018374654734000001,1.62,True,0.01964269257032569,NaAuO2S,5.658224854268661,5.658224854268661,0.0
5201,perov_5201.cif,0.330013818116,0.0018374654734000001,0.62,True,0.0048262752013599215,SbWO2N,6.149839132803083,6.149839132803083,0.0
5202,perov_5202.cif,-0.0120261431642,0.0018374654734000001,1.5,True,0.0,NaCaO3,4.847641490319869,4.847641490319869,0.0
5203,perov_5203.cif,0.227726637839,0.0018374654734000001,1.44,True,1.9064461157774728,CrTiN3,5.477634541680351,5.477634541680351,0.0
5204,perov_5204.cif,0.437952189933,0.0018374654734000001,0.26,True,0.001853094207561412,LaMoO2N,5.460585136862531,5.460585136862531,0.0
5205,perov_5205.cif,0.264047025042,0.0018374654734000001,1.92,True,1.9977788200688915,HgBO2N,6.209411357503813,6.209411357503813,0.0
5206,perov_5206.cif,0.20030259149399998,0.0018374654734000001,0.44,True,-1.689197952618236,VVO2S,5.39506979853196,5.39506979853196,0.0
5207,perov_5207.cif,0.413306069112,0.0018374654734000001,1.5,True,0.6046219276469476,ReBON2,5.849154493849214,5.849154493849214,0.0
5208,perov_5208.cif,0.18787000154199998,0.0018374654734000001,1.14,True,-2.8578508773026865,CrPdO3,5.886505794930151,5.886505794930151,0.0
5209,perov_5209.cif,0.287735017355,0.0018374654734000001,1.86,True,-2.9027208603542087,MnBeN3,5.875819558425598,5.875819558425598,0.0
5210,perov_5210.cif,0.224112125557,0.0018374654734000001,1.56,True,2.475089010915369,WTlO3,6.348658840495298,6.348658840495298,0.0
5211,perov_5211.cif,0.19807993242199998,0.0018374654734000001,1.3,True,-0.18111468457582053,KPtO2N,5.609949927162926,5.609949927162926,0.0
5212,perov_5212.cif,0.122796631049,0.0036749309468000002,1.48,True,2.9256782160653527,CoTlO2F,6.742427672663608,6.742427672663608,0.0
5213,perov_5213.cif,0.17244790447299999,0.0018374654734000001,2.1,True,-0.0006471537909942522,MgZnON2,5.813678553267986,5.813678553267986,0.0
5214,perov_5214.cif,0.221549350811,0.0018374654734000001,1.8,True,0.6134642595317563,KMnN3,5.102609199343002,5.102609199343002,0.0
5215,perov_5215.cif,0.31979467584000004,0.0018374654734000001,0.58,True,0.1393316619889333,ScWO2N,5.707746827284947,5.707746827284947,0.0
5216,perov_5216.cif,-0.007663638739320001,0.0036749309468000002,2.08,True,0.0,ZnNaO2F,5.954552251657031,5.954552251657031,0.0
5217,perov_5217.cif,0.193829695667,0.0018374654734000001,1.38,True,3.7536286617660553,TlHfN3,5.907258708433548,5.907258708433548,0.0
5218,perov_5218.cif,0.295387797465,0.0018374654734000001,0.62,True,1.0733297408318805,NbHfO3,5.662912611741363,5.662912611741363,0.0
5219,perov_5219.cif,0.218494724952,0.0018374654734000001,2.18,True,0.5457318008203007,GeSrN3,5.124815230238942,5.124815230238942,0.0
5220,perov_5220.cif,0.240948602046,0.0036749309468000002,1.0,True,3.9596244963827763e-16,GeSbOFN,6.6199687201554696,6.6199687201554696,0.0
5221,perov_5221.cif,0.25874533829,0.0036749309468000002,1.34,True,0.961631043481205,CdBOFN,6.4110361683425365,6.4110361683425365,0.0
5222,perov_5222.cif,0.260067795943,0.0018374654734000001,0.9,True,-0.5602800250543215,WVO2S,5.616000048458693,5.616000048458693,0.0
5223,perov_5223.cif,0.24510759540899998,0.0036749309468000002,1.3,True,3.4136832887603283,NbSnO2F,6.328690039883837,6.328690039883837,0.0
5224,perov_5224.cif,0.24988644577799998,0.0018374654734000001,0.86,True,0.007002663052208646,BeReON2,6.0067678843906,6.0067678843906,0.0
5225,perov_5225.cif,0.165152403833,0.0018374654734000001,2.8,True,5.9997056728581155,RbBeN3,5.35553712232289,5.35553712232289,0.0
5226,perov_5226.cif,0.255938740277,0.0018374654734000001,1.62,True,0.037078760062367884,BiTlO2N,6.218815980758665,6.218815980758665,0.0
5227,perov_5227.cif,0.20239541685600002,0.0018374654734000001,1.36,True,-0.615985535119298,CsPdO3,5.294656757641079,5.294656757641079,0.0
5228,perov_5228.cif,0.34645419463200006,0.0018374654734000001,1.46,True,-0.012320861890505441,MoBeN3,5.931612666701633,5.931612666701633,0.0
5229,perov_5229.cif,0.219513821593,0.0018374654734000001,2.02,True,3.7867940370379074,CsTiN3,4.926894791639325,4.926894791639325,0.0
5230,perov_5230.cif,0.436746085136,0.0018374654734000001,1.06,False,-0.00045877040911816377,HfBO2N,6.997525117882563,4.407525117882564,2.6
5231,perov_5231.cif,0.222569528658,0.0036749309468000002,2.22,True,4.5590970918761275,OsPtO2F,6.938106264524275,6.938106264524275,0.0
5232,perov_5232.cif,0.258393652451,0.0036749309468000002,1.36,True,1.74941950564515,HfYO2F,5.774536739192394,5.774536739192394,0.0
5233,perov_5233.cif,0.0324869624834,0.0036749309468000002,0.96,True,0.0,RbCaO2F,4.9720540834648315,4.9720540834648315,0.0
5234,perov_5234.cif,0.28888014318000005,0.0036749309468000002,0.84,True,4.374108355436113,MoTiO2F,6.0253860383893825,6.0253860383893825,0.0
5235,perov_5235.cif,0.209281909102,0.0036749309468000002,0.92,True,2.834091382071229,HgMnOFN,6.438707731902512,6.438707731902512,0.0
5236,perov_5236.cif,0.24560971966400003,0.0036749309468000002,1.02,True,2.0729300557397728e-10,SiTaO2F,6.4906217128788075,6.4906217128788075,0.0
5237,perov_5237.cif,0.0976484414449,0.0018374654734000001,0.76,True,1.9903636424067357,LiTiO2N,5.324783944633569,5.324783944633569,0.0
5238,perov_5238.cif,0.149351134856,0.0018374654734000001,2.68,True,2.445571985927223,MgLiON2,5.376409158782064,5.376409158782064,0.0
5239,perov_5239.cif,0.225967444668,0.0018374654734000001,1.92,True,0.23865177117901484,TaHgON2,6.110315448611669,6.110315448611669,0.0
5240,perov_5240.cif,0.242514756635,0.0018374654734000001,1.86,True,1.5624575070773188,OsCuO3,6.2257884631054985,6.2257884631054985,0.0
5241,perov_5241.cif,0.17617046570099998,0.0036749309468000002,0.66,False,-2.075900956733672e-15,GeInO2F,7.195818694628953,4.9958186946289524,2.2
5242,perov_5242.cif,0.220195585643,0.0018374654734000001,0.68,True,-0.0032637618110688818,PtNbON2,6.159646613689931,6.159646613689931,0.0
5243,perov_5243.cif,0.307990361306,0.0018374654734000001,1.24,True,1.3644003089780772,BiGeN3,5.918894202486216,5.918894202486216,0.0
5244,perov_5244.cif,0.265128382892,0.0018374654734000001,1.36,True,-1.7039118017976966,MoCuO2N,5.908719817124402,5.908719817124402,0.0
5245,perov_5245.cif,0.278458228219,0.0018374654734000001,3.1,True,1.5168026570241009,ReAgN3,5.848252498887812,5.848252498887812,0.0
5246,perov_5246.cif,0.318268303992,0.0018374654734000001,1.38,True,2.0661455111752485,CdSiN3,6.049545984771093,6.049545984771093,0.0
5247,perov_5247.cif,0.143707806097,0.0036749309468000002,1.2,False,2.6337166902343425e-15,BeScO2F,7.366090250732295,5.166090250732294,2.2
5248,perov_5248.cif,0.285907547657,0.0018374654734000001,1.26,True,0.016222707212094182,NbRhON2,5.848957274869383,5.848957274869383,0.0
5249,perov_5249.cif,0.20903061698800002,0.0018374654734000001,1.52,True,2.7867831530518106,MoPdO2S,5.719538543577832,5.719538543577832,0.0
5250,perov_5250.cif,0.323566418162,0.0018374654734000001,1.36,True,-0.9340986169376012,NbRuO2N,5.944007841315598,5.944007841315598,0.0
5251,perov_5251.cif,0.300824315676,0.0018374654734000001,1.2,True,0.20189595999713816,ZrSnN3,5.699471867919883,5.699471867919883,0.0
5252,perov_5252.cif,0.241810829912,0.0018374654734000001,1.1,True,0.012554968722337634,SnPtO3,6.337846490087024,6.337846490087024,0.0
5253,perov_5253.cif,0.0648734448112,0.0018374654734000001,1.68,True,-0.0038927805497052095,CsNaO2N,4.809308845628582,4.809308845628582,0.0
5254,perov_5254.cif,0.20218833001400002,0.0018374654734000001,0.9,True,1.5570076713578052,TlHfO2N,5.990874437716508,5.990874437716508,0.0
5255,perov_5255.cif,0.165548942757,0.0018374654734000001,1.18,True,-0.007165790799121073,PdAlO2S,5.5010941275671215,5.5010941275671215,0.0
5256,perov_5256.cif,0.111127004965,0.0036749309468000002,0.78,True,0.34782672751564897,HgYO2F,6.287823950169351,6.287823950169351,0.0
5257,perov_5257.cif,0.308804413083,0.0018374654734000001,2.24,True,-0.0008629014216893638,ZrTlO2N,6.069593671996733,6.069593671996733,0.0
5258,perov_5258.cif,0.040166494434,0.0036749309468000002,0.86,True,0.0,RbBaO2F,5.172235213007628,5.172235213007628,0.0
5259,perov_5259.cif,0.122788595452,0.0018374654734000001,2.34,True,-0.0066935021242585935,ZnNaN3,5.464640804953889,5.464640804953889,0.0
5260,perov_5260.cif,0.0677247284069,0.0036749309468000002,1.3,True,-1.6570753786816475e-15,LiCuO2F,6.028052670021057,6.028052670021057,0.0
5261,perov_5261.cif,0.32458844355,0.0036749309468000002,0.66,True,0.5306798895197603,CaTaO2F,5.562236413680721,5.562236413680721,0.0
5262,perov_5262.cif,0.293338217267,0.0018374654734000001,1.1,True,0.013402105742173374,ScOsO2S,5.650503296231143,5.650503296231143,0.0
5263,perov_5263.cif,0.233176732119,0.0036749309468000002,1.02,True,-5.126733863454021e-16,SrPtO2F,5.802099530976727,5.802099530976727,0.0
5264,perov_5264.cif,0.24772682184,0.0018374654734000001,1.18,True,2.046611723861897,TaGeO2S,5.815464448323271,5.815464448323271,0.0
5265,perov_5265.cif,0.0930901867033,0.0018374654734000001,3.18,True,4.164051042604979,BeMgN3,5.885266262460022,5.885266262460022,0.0
5266,perov_5266.cif,0.226377260337,0.0018374654734000001,1.74,True,-5.643470553806655e-05,GeCaON2,5.260280002526949,5.260280002526949,0.0
5267,perov_5267.cif,0.283995348737,0.0018374654734000001,0.84,True,0.4521606812722148,ScAlO2N,5.358894071554574,5.358894071554574,0.0
5268,perov_5268.cif,0.0803656405993,0.0036749309468000002,1.58,True,2.6762264738376262,AgCdOFN,6.455254403008108,6.455254403008108,0.0
5269,perov_5269.cif,0.0619372659535,0.0018374654734000001,2.08,True,2.1858758257668174,LiHgO2N,5.7845858696776284,5.7845858696776284,0.0
5270,perov_5270.cif,0.213861093704,0.0036749309468000002,1.02,True,1.8550046164049872e-15,PtHfOFN,6.410293849539751,6.410293849539751,0.0
5271,perov_5271.cif,0.314567864257,0.0018374654734000001,0.56,True,0.5459283603527221,TaTiON2,5.624622113048013,5.624622113048013,0.0
5272,perov_5272.cif,0.149487869568,0.0018374654734000001,0.56,True,0.3055613073024759,GaHfO3,5.415740632331381,5.415740632331381,0.0
5273,perov_5273.cif,0.131641877958,0.0036749309468000002,1.66,True,3.7354790230457215,MnCdOFN,6.2308221704403985,6.2308221704403985,0.0
5274,perov_5274.cif,0.29196174165399996,0.0018374654734000001,1.18,True,4.971282480658476,FeBO3,5.9466674273288795,5.9466674273288795,0.0
5275,perov_5275.cif,0.11535198120100001,0.0036749309468000002,0.46,True,0.9941768682328984,KLaO2F,5.333012457597001,5.333012457597001,0.0
5276,perov_5276.cif,0.18985032172000002,0.0018374654734000001,1.44,True,0.257865911479886,AlRuO2S,5.513400948888315,5.513400948888315,0.0
5277,perov_5277.cif,0.270345363687,0.0018374654734000001,1.08,True,1.3651632726292675,BaPdO2N,5.474239999409874,5.474239999409874,0.0
5278,perov_5278.cif,0.27418330328,0.0018374654734000001,0.72,True,2.1442946756382733,CoWO3,6.045903515404159,6.045903515404159,0.0
5279,perov_5279.cif,0.239137087143,0.0018374654734000001,2.48,True,0.8447393741206,BSiON2,6.0532081560051445,6.0532081560051445,0.0
5280,perov_5280.cif,0.19886318645999998,0.0018374654734000001,1.04,True,0.07157093243314705,BaCuO2S,5.313230157748532,5.313230157748532,0.0
5281,perov_5281.cif,0.14469752609099998,0.0036749309468000002,1.9,True,3.789909101324569,MoHgO2F,6.545685853065844,6.545685853065844,0.0
5282,perov_5282.cif,0.21205314014499999,0.0036749309468000002,2.06,True,3.002556750119482,ReMgOFN,6.117741909833523,6.117741909833523,0.0
5283,perov_5283.cif,0.27388803033000003,0.0018374654734000001,1.36,True,-0.044765214715374604,PdOsO2N,6.173886577789108,6.173886577789108,0.0
5284,perov_5284.cif,0.217669952614,0.0036749309468000002,1.46,True,0.0,TiLiO2F,5.721175293693633,5.721175293693633,0.0
5285,perov_5285.cif,0.310587640469,0.0036749309468000002,1.42,True,4.978785161718222,ReAlO2F,5.972250526266631,5.972250526266631,0.0
5286,perov_5286.cif,0.282104284185,0.0018374654734000001,1.14,True,1.9840568372759082,OsTiO3,5.908844711331563,5.908844711331563,0.0
5287,perov_5287.cif,0.0888915509791,0.0036749309468000002,2.58,True,-1.4639810070123507e-09,AuCsO2F,5.950207650068661,5.950207650068661,0.0
5288,perov_5288.cif,0.127066767018,0.0018374654734000001,2.68,True,0.33900250325376624,CsSrON2,4.44905302365056,4.44905302365056,0.0
5289,perov_5289.cif,0.300386811923,0.0018374654734000001,2.08,True,0.011131709455977305,OsPdN3,6.087716514624022,6.087716514624022,0.0
5290,perov_5290.cif,0.160759311643,0.0018374654734000001,2.04,True,-0.00014771065318454482,RbInON2,4.921395522908052,4.921395522908052,0.0
5291,perov_5291.cif,0.27515297563499996,0.0018374654734000001,1.12,True,0.0006922326569487326,GeBO3,6.097053565114175,6.097053565114175,0.0
5292,perov_5292.cif,0.18712010027399997,0.0018374654734000001,1.64,True,-0.0004373011924826144,SiBiO3,6.0864875870211215,6.0864875870211215,0.0
5293,perov_5293.cif,0.243925338268,0.0018374654734000001,1.22,True,0.54386945751515,ZnSiON2,6.097701383975641,6.097701383975641,0.0
5294,perov_5294.cif,0.292386925751,0.0036749309468000002,0.52,True,7.061806099638609e-15,PbMoOFN,6.1285659647768815,6.1285659647768815,0.0
5295,perov_5295.cif,0.317966129277,0.0018374654734000001,1.04,True,2.5887755729333537,TaFeO2S,5.672023812863699,5.672023812863699,0.0
5296,perov_5296.cif,0.22700057868,0.0018374654734000001,1.8,True,0.2308827878634965,GeBaON2,5.472065468843403,5.472065468843403,0.0
5297,perov_5297.cif,0.192123758935,0.0036749309468000002,1.24,True,2.98458284731748,CoSnOFN,6.37592802039514,6.37592802039514,0.0
5298,perov_5298.cif,0.136969092246,0.0018374654734000001,1.5,True,1.7570560272497104,TiSrO3,4.941363510606581,4.941363510606581,0.0
5299,perov_5299.cif,0.21693277984499998,0.0018374654734000001,0.84,True,-0.00032876399472776704,AlMoN3,5.450477791418791,5.450477791418791,0.0
5300,perov_5300.cif,0.342496729389,0.0036749309468000002,1.74,True,4.590645694690919e-07,ZrRuOFN,6.223272282709667,6.223272282709667,0.0
5301,perov_5301.cif,0.17270170582400002,0.0018374654734000001,1.26,True,-0.7193626139101945,InLiO2N,5.212073249032813,5.212073249032813,0.0
5302,perov_5302.cif,0.204031263905,0.0036749309468000002,2.02,True,2.215161489431811,NbTlOFN,6.599066281505847,6.599066281505847,0.0
5303,perov_5303.cif,0.000527040868076,0.0036749309468000002,3.48,True,0.0,CoKOFN,5.6834597361019465,5.6834597361019465,0.0
5304,perov_5304.cif,0.329790834419,0.0018374654734000001,2.32,True,1.0355375252481631,ReRhN3,5.810897463705411,5.810897463705411,0.0
5305,perov_5305.cif,0.230070788452,0.0018374654734000001,2.36,True,0.9757077803103544,BaCaN3,4.688480796070487,4.688480796070487,0.0
5306,perov_5306.cif,0.31793503279,0.0036749309468000002,0.84,True,-0.14804328756944982,LaLaOFN,5.535524795963265,5.535524795963265,0.0
5307,perov_5307.cif,0.1339907877,0.0036749309468000002,1.02,True,0.9639066623252576,AuScO2F,6.474296614708733,6.474296614708733,0.0
5308,perov_5308.cif,0.168067413921,0.0018374654734000001,1.98,True,4.7206562706794895,NiGaON2,5.619443261039701,5.619443261039701,0.0
5309,perov_5309.cif,0.118017434256,0.0018374654734000001,1.26,True,1.149120156340821,HgYO3,5.893444837928281,5.893444837928281,0.0
5310,perov_5310.cif,0.16582587077400002,0.0018374654734000001,0.98,True,-3.8774948543616468,MnCuO3,5.894421340069426,5.894421340069426,0.0
5311,perov_5311.cif,0.232594407211,0.0036749309468000002,1.08,True,-6.53561830074226e-15,PbPtO2F,6.627795436562781,6.627795436562781,0.0
5312,perov_5312.cif,0.187720851789,0.0018374654734000001,0.62,True,4.999877534939669,MnZrO2S,5.442581387400388,5.442581387400388,0.0
5313,perov_5313.cif,0.22138583651000002,0.0036749309468000002,1.32,True,-0.04910485955628807,ScYOFN,5.710359537391808,5.710359537391808,0.0
5314,perov_5314.cif,0.267262769441,0.0018374654734000001,1.46,True,0.0022443568698413685,AlBeO2S,5.608106983683168,5.608106983683168,0.0
5315,perov_5315.cif,0.145775655736,0.0018374654734000001,0.74,True,0.9101937844061788,AgZrO2S,5.638621437700747,5.638621437700747,0.0
5316,perov_5316.cif,0.0731730429153,0.0018374654734000001,3.32,True,3.004784058258174,BCdO2N,6.008929052645026,6.008929052645026,0.0
5317,perov_5317.cif,0.23558297872499998,0.0018374654734000001,1.72,True,-0.2742583952067271,PtBaO2N,5.725624604581837,5.725624604581837,0.0
5318,perov_5318.cif,0.26384405386,0.0018374654734000001,1.26,True,4.072547362507926,RuFeO3,6.003778969173276,6.003778969173276,0.0
5319,perov_5319.cif,0.390250650046,0.0036749309468000002,0.8,False,3.889864479338197e-15,ZrBeOFN,6.930172079551574,5.730172079551576,1.2
5320,perov_5320.cif,0.217845456697,0.0018374654734000001,1.72,True,2.531054386077884,AuNiO3,6.412135388428043,6.412135388428043,0.0
5321,perov_5321.cif,0.24574470584600003,0.0018374654734000001,1.02,True,0.004162074179486552,TeZnO3,6.363022468914747,6.363022468914747,0.0
5322,perov_5322.cif,0.106597913869,0.0018374654734000001,2.56,True,-8.70613984067073e-07,GeRbO3,5.400969484702253,5.400969484702253,0.0
5323,perov_5323.cif,0.277177581676,0.0018374654734000001,-0.08,True,-9.379116632884726e-06,BaSnO3,6.745170345388577,4.205170345388579,2.5
5324,perov_5324.cif,0.244567080707,0.0018374654734000001,1.12,True,0.2411828562127987,ZnIrO3,6.32786549632034,6.32786549632034,0.0