,id,fermi level,fermi width,e_form,gap is direct,mu_b,formula,vbm,cbm,gap gllbsc
3112,perov_3112.cif,0.22155768133900003,0.0018374654734000001,1.6,True,2.454462409477418,WAgO2S,5.856568088186706,5.856568088186706,0.0
3113,perov_3113.cif,0.20446991460499997,0.0018374654734000001,1.64,True,1.3379506354297988,SiTaN3,5.956605091818105,5.956605091818105,0.0
3114,perov_3114.cif,0.274811907917,0.0018374654734000001,1.74,True,0.996236631930756,ZrInO2S,5.247696176155673,5.247696176155673,0.0
3115,perov_3115.cif,0.248586669715,0.0018374654734000001,1.6,True,2.000162086233443,SiMnO2N,5.924542935391138,5.924542935391138,0.0
3116,perov_3116.cif,0.106217177684,0.0018374654734000001,1.36,True,0.0,CsScO2S,4.8118733023138525,4.8118733023138525,0.0
3117,perov_3117.cif,0.134704549797,0.0018374654734000001,1.42,True,2.9999989657805664,NiScO3,5.748000726851131,5.748000726851131,0.0
3118,perov_3118.cif,0.266539323972,0.0018374654734000001,1.66,True,-1.0448738886355664,PtAlO2N,5.936041358541147,5.936041358541147,0.0
3119,perov_3119.cif,0.223983018845,0.0018374654734000001,0.84,True,-3.8918283333799755e-06,GeTeO3,6.4053522945627535,6.4053522945627535,0.0
3120,perov_3120.cif,0.17049720564399998,0.0018374654734000001,1.86,True,0.0,CdCsO2N,5.252843245669943,5.252843245669943,0.0
3121,perov_3121.cif,0.22272372086599998,0.0018374654734000001,1.04,True,1.7265222067397266,SrHfON2,4.861044922109934,4.861044922109934,0.0
3122,perov_3122.cif,0.301798810599,0.0036749309468000002,0.96,True,0.9592811386048152,ScHfOFN,5.7870361125084475,5.7870361125084475,0.0
3123,perov_3123.cif,0.22880463530900003,0.0018374654734000001,1.62,True,3.1071058630354926,BaCdON2,5.431008264053687,5.431008264053687,0.0
3124,perov_3124.cif,0.264636902963,0.0036749309468000002,1.56,True,2.956211623515742,RuOsO2F,6.648327593254213,6.648327593254213,0.0
3125,perov_3125.cif,0.343942280054,0.0036749309468000002,0.4,True,3.933220205467386e-10,CaZrO2F,5.431414523859017,5.431414523859017,0.0
3126,perov_3126.cif,0.179337087733,0.0018374654734000001,1.04,True,8.950809117891367e-06,CdPbO2S,5.711454652129719,5.711454652129719,0.0
3127,perov_3127.cif,0.28620923005,0.0036749309468000002,1.04,True,-3.0929560773536395e-15,InBO2F,6.011348877018511,6.011348877018511,0.0
3128,perov_3128.cif,0.22359447,0.0036749309468000002,1.34,True,2.874110076837632,CoAsOFN,6.64821243554854,6.64821243554854,0.0
3129,perov_3129.cif,0.205720411488,0.0018374654734000001,2.04,True,0.0008362054575670187,CuPbN3,5.823259844849392,5.823259844849392,0.0
3130,perov_3130.cif,0.189686424693,0.0036749309468000002,2.76,True,-0.4124039076253143,HfSrOFN,5.222914281421437,5.222914281421437,0.0
3131,perov_3131.cif,0.19269281062,0.0018374654734000001,1.64,True,1.1598108624325667,VCdON2,5.761213968285973,5.761213968285973,0.0
3132,perov_3132.cif,0.226933806556,0.0018374654734000001,0.86,True,3.54290113699464,CdFeO2S,5.760524384899651,5.760524384899651,0.0
3133,perov_3133.cif,0.14504891205499998,0.0018374654734000001,1.4,True,2.3641876538709568,InYO2N,5.272970577496361,5.272970577496361,0.0
3134,perov_3134.cif,0.207385613286,0.0036749309468000002,0.44,True,4.000008591224131,CrGaO2F,5.879585633112344,5.879585633112344,0.0
3135,perov_3135.cif,0.28240217475699997,0.0018374654734000001,1.26,True,2.4814016426010967,MnCoN3,5.724307109023474,5.724307109023474,0.0
3136,perov_3136.cif,0.292063024481,0.0036749309468000002,1.86,True,0.0,IrIrOFN,6.953004750769466,6.953004750769466,0.0
3137,perov_3137.cif,0.33902828345200003,0.0036749309468000002,1.18,True,-0.2976945717751803,AsSiOFN,6.784730285803702,6.784730285803702,0.0
3138,perov_3138.cif,0.29460280973999997,0.0018374654734000001,0.64,True,0.0004809289217675431,PbSbO2N,6.000164272178942,6.000164272178942,0.0
3139,perov_3139.cif,0.007498268634359999,0.0036749309468000002,3.04,True,0.0,AlRbO2F,5.362314902019058,5.362314902019058,0.0
3140,perov_3140.cif,0.278082059554,0.0018374654734000001,0.9,True,-0.17350618554251412,LaYON2,5.208735263751995,5.208735263751995,0.0
3141,perov_3141.cif,0.26694385507199997,0.0018374654734000001,0.74,True,0.3943098630841,TaVO2S,5.537239890564172,5.537239890564172,0.0
3142,perov_3142.cif,0.154510698995,0.0018374654734000001,1.32,True,0.00040466893417701055,AuCdO2S,6.180049808038947,6.180049808038947,0.0
3143,perov_3143.cif,0.07671142842119999,0.0018374654734000001,1.82,True,-0.007835694714894094,RbLiO2N,4.926986170413548,4.926986170413548,0.0
3144,perov_3144.cif,0.250884958331,0.0018374654734000001,1.7,True,2.999811646479035,LaCaON2,4.835692588047254,4.835692588047254,0.0
3145,perov_3145.cif,0.148522496849,0.0018374654734000001,1.34,True,0.00017493365041687525,NiAgO2S,5.856568088186706,5.856568088186706,0.0
3146,perov_3146.cif,0.253339008492,0.0018374654734000001,1.64,True,-0.2461988020211545,TaTlO3,6.2596236965527545,6.2596236965527545,0.0
3147,perov_3147.cif,0.18667084805999998,0.0036749309468000002,1.3,True,0.0,VTeO2F,6.507034441212362,6.507034441212362,0.0
3148,perov_3148.cif,0.27899594548900003,0.0018374654734000001,1.12,True,0.3172166201565752,TlIrO3,6.599327875398427,6.599327875398427,0.0
3149,perov_3149.cif,0.35093244387199996,0.0018374654734000001,1.34,True,0.02865091712611445,NbIrN3,6.065140924032782,6.065140924032782,0.0
3150,perov_3150.cif,0.13868631777899998,0.0018374654734000001,2.38,True,1.365384991786993,PbRbO2N,5.186303936081706,5.186303936081706,0.0
3151,perov_3151.cif,0.363344290327,0.0018374654734000001,1.18,True,-0.3794686893746165,MoCoN3,5.778661549823321,5.778661549823321,0.0
3152,perov_3152.cif,0.226822037034,0.0018374654734000001,2.16,True,6.483174118768948,RbCoN3,5.21744054886641,5.21744054886641,0.0
3153,perov_3153.cif,0.19366498415600003,0.0018374654734000001,0.68,True,-3.677574182603394e-05,PbAsO2S,5.919992569319589,5.919992569319589,0.0
3154,perov_3154.cif,0.39766455363700004,0.0018374654734000001,1.34,True,0.00028873352373537386,NbBN3,5.805292455077941,5.805292455077941,0.0
3155,perov_3155.cif,0.2648652459,0.0036749309468000002,0.98,True,2.1440039116247824,BaNiOFN,5.827382392670582,5.827382392670582,0.0
3156,perov_3156.cif,0.172350521588,0.0036749309468000002,1.44,True,-3.5348243709544173e-15,AlSbO2F,6.203795745063061,6.203795745063061,0.0
3157,perov_3157.cif,0.170616667678,0.0018374654734000001,1.36,True,-0.0017457200182440307,RhAgO2S,5.8297019636838305,5.8297019636838305,0.0
3158,perov_3158.cif,0.352245566169,0.0018374654734000001,1.52,True,-2.2109326967442624,IrReO2N,6.154063860340553,6.154063860340553,0.0
3159,perov_3159.cif,0.23975292358300002,0.0018374654734000001,1.08,True,1.6967545808161726,CdTiON2,5.7123830764914105,5.7123830764914105,0.0
3160,perov_3160.cif,0.128234310517,0.0018374654734000001,1.76,True,4.003284456021716,CoLaO3,5.607535935734678,5.607535935734678,0.0
3161,perov_3161.cif,0.22485638033100003,0.0018374654734000001,2.46,True,1.2699698295950803,YCaN3,4.854710304074886,4.854710304074886,0.0
3162,perov_3162.cif,0.15506215018,0.0036749309468000002,0.46,True,0.6223618815547596,CuTiOFN,6.151420917887113,6.151420917887113,0.0
3163,perov_3163.cif,0.10656086681,0.0018374654734000001,3.26,True,-0.8520470183812942,NbKO2S,5.089218988075883,5.089218988075883,0.0
3164,perov_3164.cif,0.21965251368799998,0.0018374654734000001,0.72,False,-4.5153452887802803e-07,CdGeO2S,6.206203124201907,5.606203124201908,0.6
3165,perov_3165.cif,0.36639510124499997,0.0018374654734000001,1.34,True,0.8893116026825929,ZrPtN3,6.002220727768563,6.002220727768563,0.0
3166,perov_3166.cif,0.199143885696,0.0018374654734000001,0.72,False,-7.371978651143617e-05,BiInO2S,5.876711952401121,4.87671195240112,1.0
3167,perov_3167.cif,0.18049247380300001,0.0018374654734000001,1.38,True,1.3144987634412644,InInON2,5.206159113433419,5.206159113433419,0.0
3168,perov_3168.cif,0.0831707781163,0.0018374654734000001,1.28,True,2.9999999835742126,SrNaO3,4.756110726802857,4.756110726802857,0.0
3169,perov_3169.cif,0.0973390220977,0.0018374654734000001,4.58,True,3.9999046112537964,SiRbN3,5.324578185407138,5.324578185407138,0.0
3170,perov_3170.cif,0.301714727892,0.0018374654734000001,2.06,True,0.19510904872177195,LaBaON2,5.030383632864383,5.030383632864383,0.0
3171,perov_3171.cif,0.23951056707499999,0.0018374654734000001,0.32,False,0.0008681583517071191,SnSnO3,6.903168843129988,5.1331688431299884,1.8
3172,perov_3172.cif,0.26927113233399996,0.0018374654734000001,1.06,True,0.005074559159032432,GaOsO2N,5.7798509646677605,5.7798509646677605,0.0
3173,perov_3173.cif,0.333553491021,0.0018374654734000001,1.64,True,-1.3519651953988108,OsCrO2N,5.956556045751847,5.956556045751847,0.0
3174,perov_3174.cif,0.118350736816,0.0018374654734000001,2.54,True,0.0010476298309427536,CuCsO3,5.3017764473215285,5.3017764473215285,0.0
3175,perov_3175.cif,0.326111043757,0.0018374654734000001,1.52,True,-0.0382057317320585,OsCoON2,6.0887511208121845,6.0887511208121845,0.0
3176,perov_3176.cif,0.120111439507,0.0036749309468000002,2.52,True,0.8856238010681848,SnCsOFN,5.571068999845728,5.571068999845728,0.0
3177,perov_3177.cif,0.263815445723,0.0018374654734000001,1.6,True,2.9823713291966603,BiScN3,5.5518574199311415,5.5518574199311415,0.0
3178,perov_3178.cif,0.20338580866300002,0.0018374654734000001,1.06,True,0.0009159137806360463,GaAlO2S,5.149998108862744,5.149998108862744,0.0
3179,perov_3179.cif,0.0546477755346,0.0036749309468000002,1.18,True,0.0,InBaO2F,5.471512981567769,5.471512981567769,0.0
3180,perov_3180.cif,0.20435771902,0.0018374654734000001,1.46,True,-0.4422092461664309,TiCaO2N,5.0011885456477625,5.0011885456477625,0.0
3181,perov_3181.cif,0.367280573549,0.0036749309468000002,0.68,True,0.016516860667039168,LaInO2F,5.603790152907568,5.603790152907568,0.0
3182,perov_3182.cif,0.293298834266,0.0036749309468000002,1.48,True,4.2831487441117075e-15,TeSiO2F,6.8808801875759125,6.8808801875759125,0.0
3183,perov_3183.cif,0.162351774796,0.0018374654734000001,1.8,True,-0.3836661094575407,TlLaON2,5.806154887332971,5.806154887332971,0.0
3184,perov_3184.cif,0.18778179268800002,0.0018374654734000001,0.92,True,-0.2235507972340288,SbLaO2S,5.528735377259417,5.528735377259417,0.0
3185,perov_3185.cif,0.310322610037,0.0018374654734000001,1.36,True,-2.2433801129654265,IrWO2N,6.269366505989791,6.269366505989791,0.0
3186,perov_3186.cif,0.048337982086899996,0.0036749309468000002,1.62,True,0.0,NaZnOFN,5.912851848388102,5.912851848388102,0.0
3187,perov_3187.cif,0.11575800437000001,0.0018374654734000001,1.96,True,4.0060107339839375,CrBaO3,5.318786190542141,5.318786190542141,0.0
3188,perov_3188.cif,0.144064233191,0.0018374654734000001,1.42,True,1.943462989955807,MgInO2N,5.446323889115843,5.446323889115843,0.0
3189,perov_3189.cif,0.255686417352,0.0018374654734000001,0.94,True,0.2649541013319521,CrMnON2,5.6000246095533965,5.6000246095533965,0.0
3190,perov_3190.cif,0.16797825613200001,0.0018374654734000001,1.5,True,2.147346271099426,HgScO2N,5.906201595824868,5.906201595824868,0.0
3191,perov_3191.cif,0.220452611197,0.0036749309468000002,1.4,True,3.0103039250452808,NbAsO2F,6.598957154048986,6.598957154048986,0.0
3192,perov_3192.cif,0.250828536023,0.0018374654734000001,0.88,True,0.3331217199078047,InRuO3,5.6884222600278225,5.6884222600278225,0.0
3193,perov_3193.cif,0.17528868098099998,0.0036749309468000002,1.54,True,-0.09956209956898134,BeZrOFN,6.330172079551574,6.330172079551574,0.0
3194,perov_3194.cif,0.17631709135899998,0.0018374654734000001,2.82,True,-1.4481824150633102,TiBaO2N,5.202542665156175,5.202542665156175,0.0
3195,perov_3195.cif,0.058472995954200004,0.0036749309468000002,0.98,True,-1.4557619585357633,InCaO2F,5.259748898178104,5.259748898178104,0.0
3196,perov_3196.cif,0.115194559992,0.0018374654734000001,1.34,True,1.82171832547753,NaRhO2S,5.3350529059487855,5.3350529059487855,0.0
3197,perov_3197.cif,0.153730991338,0.0018374654734000001,0.98,True,1.4481113685242375,KBiO2N,5.27905650105756,5.27905650105756,0.0
3198,perov_3198.cif,0.348323379577,0.0018374654734000001,1.92,True,0.7037336200602803,TiTeN3,5.9210528078022895,5.9210528078022895,0.0
3199,perov_3199.cif,0.233727709501,0.0018374654734000001,1.48,True,0.0007573724388034719,SiAsO3,6.4040328379575655,6.4040328379575655,0.0
3200,perov_3200.cif,0.31952289083,0.0036749309468000002,1.22,True,1.7512832349468828,ScCoOFN,6.061763771486825,6.061763771486825,0.0
3201,perov_3201.cif,0.08100165124219999,0.0036749309468000002,1.86,True,-1.1747453120651945,CuHgOFN,6.682604006104494,6.682604006104494,0.0
3202,perov_3202.cif,0.16650432358699999,0.0018374654734000001,0.92,True,0.0002733589248844481,AsGaO2S,5.693262875668584,5.693262875668584,0.0
3203,perov_3203.cif,0.113657856919,0.0018374654734000001,2.24,True,2.68586449588134,AgAgO2N,6.053102954548218,6.053102954548218,0.0
3204,perov_3204.cif,0.200743116877,0.0018374654734000001,1.72,True,-2.8743761049004646,MnAgO2N,5.842652471075655,5.842652471075655,0.0
3205,perov_3205.cif,0.16008876774,0.0018374654734000001,2.1,True,0.09964651328580132,CdHgON2,6.20565468384122,6.20565468384122,0.0
3206,perov_3206.cif,0.28255032573600003,0.0018374654734000001,0.2,True,0.9802308807180576,SrCrO2N,4.981262857850316,4.981262857850316,0.0
3207,perov_3207.cif,0.26735414064,0.0018374654734000001,1.38,True,3.9417487729061036,SrCoON2,5.091813050332504,5.091813050332504,0.0
3208,perov_3208.cif,0.163050120439,0.0018374654734000001,1.26,True,0.9955814830566608,CsBaO3,4.784017586537713,4.784017586537713,0.0
3209,perov_3209.cif,0.272647822307,0.0018374654734000001,1.6,True,1.7081787611540218,VRuN3,5.738833825349151,5.738833825349151,0.0
3210,perov_3210.cif,0.189767490782,0.0018374654734000001,0.6,True,-0.0004304139394278824,SrAsO2S,5.182475294929771,5.182475294929771,0.0
3211,perov_3211.cif,0.350632897968,0.0018374654734000001,1.56,True,0.01800563775293185,OsCoN3,6.046110907675865,6.046110907675865,0.0
3212,perov_3212.cif,0.259357315161,0.0018374654734000001,0.18,True,-3.762015531421401,MnVO3,5.642168784402907,5.642168784402907,0.0
3213,perov_3213.cif,0.128531998865,0.0018374654734000001,2.2,True,0.0,SrRbO2N,4.540190161730164,4.540190161730164,0.0
3214,perov_3214.cif,0.118438895653,0.0036749309468000002,1.14,True,1.9978798099255288,KInOFN,5.323428621692856,5.323428621692856,0.0
3215,perov_3215.cif,0.163587704078,0.0018374654734000001,1.78,True,0.11018250151216348,TaNaO2S,5.284474550997029,5.284474550997029,0.0
3216,perov_3216.cif,0.257447607992,0.0018374654734000001,1.4,True,0.003054279761572689,AsVN3,5.929749137377782,5.929749137377782,0.0
3217,perov_3217.cif,0.14244030052999998,0.0018374654734000001,1.68,True,0.005174251986446166,AsLaO3,5.847006117617087,5.847006117617087,0.0
3218,perov_3218.cif,0.10593577782500001,0.0036749309468000002,1.9,True,1.201235223101914,ZnAgOFN,6.4610725777590945,6.4610725777590945,0.0
3219,perov_3219.cif,0.327853432222,0.0018374654734000001,0.88,True,-0.003600923405510769,BiCrN3,5.672801652363479,5.672801652363479,0.0
3220,perov_3220.cif,0.230780365765,0.0018374654734000001,0.82,True,0.24672102961192624,CuSbO3,6.215569633337076,6.215569633337076,0.0
3221,perov_3221.cif,0.175407241032,0.0018374654734000001,2.06,True,0.4104443686807926,NaPtON2,5.755893777450059,5.755893777450059,0.0
3222,perov_3222.cif,0.20918568685,0.0036749309468000002,0.84,True,0.9690562305108158,SnScOFN,6.061763771486825,6.061763771486825,0.0
3223,perov_3223.cif,0.318273426754,0.0018374654734000001,2.0,True,-3.947446631505864,OsSbO2N,6.2810896509155,6.2810896509155,0.0
3224,perov_3224.cif,0.33863842300999997,0.0018374654734000001,0.52,True,3.533624588266268,ScMnO3,5.558208922596463,5.558208922596463,0.0
3225,perov_3225.cif,0.0861866308469,0.0018374654734000001,1.54,True,-0.5146636399050692,NaAuO3,5.878697595704397,5.878697595704397,0.0
3226,perov_3226.cif,0.27325685533000005,0.0018374654734000001,1.4,True,0.003380816258793828,MgSiN3,5.851245102156148,5.851245102156148,0.0
3227,perov_3227.cif,0.269605513248,0.0018374654734000001,1.6,True,2.9116877749689376,BiGaN3,5.504514328571782,5.504514328571782,0.0
3228,perov_3228.cif,-0.00298127614816,0.0018374654734000001,2.12,True,2.3354786680992827,LiSrO2S,4.628021476782057,4.628021476782057,0.0
3229,perov_3229.cif,0.138992225966,0.0036749309468000002,2.26,True,3.1052733925170917,IrHgO2F,6.9702842385689365,6.9702842385689365,0.0
3230,perov_3230.cif,0.132943766969,0.0036749309468000002,2.12,True,3.3614819464107963,PtLiO2F,6.2964023818754455,6.2964023818754455,0.0
3231,perov_3231.cif,0.0548234585678,0.0018374654734000001,2.36,True,0.0,SrKO2S,4.430422456806791,4.430422456806791,0.0
3232,perov_3232.cif,0.244999028169,0.0018374654734000001,1.0,True,1.095289169772352,RuAlO3,5.728230626595232,5.728230626595232,0.0
3233,perov_3233.cif,0.0552804540659,0.0036749309468000002,3.1,True,2.178850400894092,BAgOFN,6.413927931435215,6.413927931435215,0.0
3234,perov_3234.cif,0.229647417882,0.0036749309468000002,0.78,True,6.69455009101447e-14,MgNbO2F,6.1578114693624055,6.1578114693624055,0.0
3235,perov_3235.cif,0.335276592266,0.0018374654734000001,1.5,True,0.6345176683655326,SrIrN3,5.280011847887113,5.280011847887113,0.0
3236,perov_3236.cif,0.311948668195,0.0018374654734000001,1.36,True,1.4541067466805444,WRuN3,5.973841348637799,5.973841348637799,0.0
3237,perov_3237.cif,0.137989670797,0.0018374654734000001,1.3,True,1.9677953580855616,NaBO3,5.540352741766176,5.540352741766176,0.0
3238,perov_3238.cif,0.17432368251400002,0.0036749309468000002,1.54,True,7.611291432683099e-16,MgBiOFN,6.147954450980468,6.147954450980468,0.0
3239,perov_3239.cif,0.291768839504,0.0018374654734000001,0.4,True,9.65355700799364e-06,SrSbO2N,5.252659144749842,5.252659144749842,0.0
3240,perov_3240.cif,0.152775986107,0.0018374654734000001,1.08,True,-0.0034841739428300425,HgPbO2S,5.902012001488233,5.902012001488233,0.0
3241,perov_3241.cif,0.13853110344900002,0.0018374654734000001,2.6,True,0.3658028482913701,HgCsO2N,5.428099453844052,5.428099453844052,0.0
3242,perov_3242.cif,0.10294522325899999,0.0018374654734000001,2.76,True,0.9453826517197116,BeCdO2S,5.981306102537133,5.981306102537133,0.0
3243,perov_3243.cif,0.255545131885,0.0036749309468000002,1.12,True,2.000151329965038,TiHfOFN,5.824661858154503,5.824661858154503,0.0
3244,perov_3244.cif,0.28591000729800004,0.0018374654734000001,0.78,True,0.010844135957281507,BaPtO3,5.766004587219597,5.766004587219597,0.0
3245,perov_3245.cif,0.314901540479,0.0018374654734000001,1.46,True,0.0364272346606036,WIrON2,6.2254614228716205,6.2254614228716205,0.0
3246,perov_3246.cif,0.315487780514,0.0018374654734000001,0.42,True,3.7146177092057258,SbMnO3,5.988718801800583,5.988718801800583,0.0
3247,perov_3247.cif,0.206227743491,0.0018374654734000001,2.06,True,-0.6723201576846541,OsRbO2N,5.429124687547157,5.429124687547157,0.0
3248,perov_3248.cif,0.187935675121,0.0018374654734000001,1.06,True,4.465533382965073,AgFeO3,5.9876828153059725,5.9876828153059725,0.0
3249,perov_3249.cif,0.120171015997,0.0036749309468000002,1.06,True,3.9409979796173085,FeYO2F,5.9795910021376155,5.9795910021376155,0.0
3250,perov_3250.cif,0.2248046341,0.0018374654734000001,1.38,True,-0.0016040452302456892,OsAsO2S,6.19716433982676,6.19716433982676,0.0
3251,perov_3251.cif,0.415037372719,0.0018374654734000001,0.18,True,0.0039050520441143983,LaNbO2N,5.488305268126124,5.488305268126124,0.0
3252,perov_3252.cif,0.13936774273299998,0.0018374654734000001,1.24,True,0.0,NbNaO3,5.463336568062194,5.463336568062194,0.0
3253,perov_3253.cif,0.302819451178,0.0018374654734000001,1.56,True,-0.0036283097181419297,TeTeO2N,6.5895204547660695,6.5895204547660695,0.0
3254,perov_3254.cif,0.109262754105,0.0018374654734000001,3.22,True,6.652885179788406,TlNaN3,5.699071260939815,5.699071260939815,0.0
3255,perov_3255.cif,0.261375553937,0.0018374654734000001,0.2,True,0.041468552120413456,CaVO2N,5.043939967155497,5.043939967155497,0.0
3256,perov_3256.cif,0.106021655086,0.0018374654734000001,2.88,True,0.0,CaKON2,4.626157015015997,4.626157015015997,0.0
3257,perov_3257.cif,0.270823722903,0.0018374654734000001,0.62,True,-0.0035452214854993593,WTaO2N,5.94664727745453,5.94664727745453,0.0
3258,perov_3258.cif,0.22063431997900002,0.0018374654734000001,1.08,True,5.440133547763192,CsFeO2N,5.162010722650688,5.162010722650688,0.0