,id,fermi level,fermi width,e_form,gap is direct,mu_b,formula,vbm,cbm,gap gllbsc
5473,perov_5473.cif,0.0976883957458,0.0018374654734000001,1.84,True,2.3620512730148,AgCdO3,6.093044149556357,6.093044149556357,0.0
5474,perov_5474.cif,0.244511025304,0.0036749309468000002,1.28,True,5.9997616906539335,WVO2F,6.225284041879325,6.225284041879325,0.0
5475,perov_5475.cif,0.221718484157,0.0018374654734000001,1.14,True,2.709745898171736,NbSnO2S,5.7092854448996455,5.7092854448996455,0.0
5476,perov_5476.cif,0.270565274764,0.0018374654734000001,1.9,True,0.015878002719066583,TiAuN3,5.980253971671642,5.980253971671642,0.0
5477,perov_5477.cif,0.3340722395,0.0036749309468000002,0.76,True,2.9932885418886137,YCrOFN,5.83475665333415,5.83475665333415,0.0
5478,perov_5478.cif,0.273874787401,0.0018374654734000001,1.54,True,0.30513797170571344,GePtN3,6.289892918075546,6.289892918075546,0.0
5479,perov_5479.cif,0.27848143930999997,0.0036749309468000002,1.4,True,4.822350231557135e-15,TeIrOFN,6.991634933034519,6.991634933034519,0.0
5480,perov_5480.cif,0.298612912891,0.0018374654734000001,0.74,False,-1.9783876937661508e-05,YAsO3,6.341399305767725,5.4813993057677255,0.9
5481,perov_5481.cif,0.242347710604,0.0036749309468000002,1.56,True,1.2179643042879924,TiRhOFN,6.101175722163865,6.101175722163865,0.0
5482,perov_5482.cif,0.14130295892300002,0.0018374654734000001,2.14,True,4.9999392803619465,GaInN3,5.202630479820953,5.202630479820953,0.0
5483,perov_5483.cif,0.2316105937,0.0018374654734000001,1.24,True,-0.003795228180426214,AuGeO2N,6.424089777263029,6.424089777263029,0.0
5484,perov_5484.cif,0.316724969558,0.0018374654734000001,1.26,True,-0.0011848856698939956,LaTlO2N,5.8471028100024105,5.8471028100024105,0.0
5485,perov_5485.cif,0.0990659203099,0.0018374654734000001,0.5,True,0.9974526410996684,LiZrO3,5.4201407143349645,5.4201407143349645,0.0
5486,perov_5486.cif,0.311866113769,0.0018374654734000001,0.86,True,0.2640878917453833,TeWO2N,6.30419846418542,6.30419846418542,0.0
5487,perov_5487.cif,0.2456882798,0.0018374654734000001,0.88,True,-2.094017727466836,VTiO2N,5.518857644073954,5.518857644073954,0.0
5488,perov_5488.cif,0.189814462425,0.0036749309468000002,2.16,True,3.154639663677388,TaPbO2F,6.233828181938767,6.233828181938767,0.0
5489,perov_5489.cif,0.22097734863200003,0.0018374654734000001,2.36,True,4.870913709667751,CoZnON2,5.975007474362156,5.975007474362156,0.0
5490,perov_5490.cif,0.141907799749,0.0036749309468000002,1.36,True,-4.463757559495739e-15,MgTlO2F,6.560377928516233,6.560377928516233,0.0
5491,perov_5491.cif,0.216301828955,0.0018374654734000001,1.12,False,-0.004492241975698485,AlSnO2N,5.9816305513046295,5.29163055130463,0.7
5492,perov_5492.cif,0.206304232897,0.0018374654734000001,1.88,True,-0.4476846954208815,TiZnO2S,5.580998279450102,5.580998279450102,0.0
5493,perov_5493.cif,0.237289156743,0.0018374654734000001,1.46,True,2.0244196400021006,AuFeO2N,6.265637167314459,6.265637167314459,0.0
5494,perov_5494.cif,0.005908463713069999,0.0036749309468000002,2.02,True,0.0,HgNaO2F,6.147679370541304,6.147679370541304,0.0
5495,perov_5495.cif,0.24709620988000003,0.0018374654734000001,2.22,True,0.000423086891752078,SiCaN3,5.259283394328045,5.259283394328045,0.0
5496,perov_5496.cif,0.27573713985599996,0.0036749309468000002,0.5,True,-2.9154793505462924,SbCrO2F,6.389473482546142,6.389473482546142,0.0
5497,perov_5497.cif,0.23754274085700003,0.0036749309468000002,0.9,True,0.9984621399600614,CsZrOFN,5.388465703586327,5.388465703586327,0.0
5498,perov_5498.cif,0.349049880934,0.0018374654734000001,0.58,True,0.0038479109187932172,BiMoO2N,5.807726530021447,5.807726530021447,0.0
5499,perov_5499.cif,0.244200951497,0.0018374654734000001,1.28,True,1.0097450964154897,PdMoN3,5.818426735212682,5.818426735212682,0.0
5500,perov_5500.cif,0.25338517197,0.0018374654734000001,2.84,True,-0.3931357420538427,BaCsON2,4.717246178864324,4.717246178864324,0.0
5501,perov_5501.cif,0.244437816765,0.0036749309468000002,0.4,True,-1.8351903886891824e-16,PbSnO2F,6.2934929170891865,6.2934929170891865,0.0
5502,perov_5502.cif,0.254585956478,0.0036749309468000002,1.44,True,1.6634275416604256,RuCoOFN,6.4341653448268135,6.4341653448268135,0.0
5503,perov_5503.cif,0.29325551699999997,0.0018374654734000001,1.48,True,2.9935608089203445,LaMgN3,5.342300199524791,5.342300199524791,0.0
5504,perov_5504.cif,0.165871378693,0.0018374654734000001,1.74,True,1.7439667250902782,CdCdO2N,6.047646019585142,6.047646019585142,0.0
5505,perov_5505.cif,0.220651338107,0.0018374654734000001,3.5,True,0.03711076158301906,YRbN3,4.914982259641295,4.914982259641295,0.0
5506,perov_5506.cif,-0.0544447466935,0.0018374654734000001,3.82,True,0.0,BNaO3,5.540352741766176,5.540352741766176,0.0
5507,perov_5507.cif,0.351479520229,0.0036749309468000002,1.82,True,2.2241506891069847,IrSiO2F,6.842861947445247,6.842861947445247,0.0
5508,perov_5508.cif,0.234247379147,0.0036749309468000002,1.44,True,6.355383403222862e-12,AsIrO2F,6.9915193137473395,6.9915193137473395,0.0
5509,perov_5509.cif,0.197831916725,0.0036749309468000002,1.22,True,2.37924989099756,VCuO2F,6.247758576261911,6.247758576261911,0.0
5510,perov_5510.cif,0.221346450154,0.0036749309468000002,1.12,True,0.0,CoMoO2F,6.296725323990387,6.296725323990387,0.0
5511,perov_5511.cif,0.277365960394,0.0018374654734000001,0.28,True,-0.0020988180664620656,BaBiO3,5.425906540431996,5.425906540431996,0.0
5512,perov_5512.cif,0.150104695549,0.0018374654734000001,1.18,True,-4.658926041661713,MnPbO3,5.730275387801796,5.730275387801796,0.0
5513,perov_5513.cif,0.216146493695,0.0018374654734000001,2.6,True,1.6002996322384622,VCsON2,5.004055095514051,5.004055095514051,0.0
5514,perov_5514.cif,0.306908943255,0.0036749309468000002,1.48,True,3.1316868753396725,TaGeO2F,6.446388481816213,6.446388481816213,0.0
5515,perov_5515.cif,0.179787713308,0.0018374654734000001,0.42,False,-4.019483737765775e-06,AgVO3,6.230397909254964,5.460397909254963,0.8
5516,perov_5516.cif,0.333853795366,0.0018374654734000001,2.4,True,0.8513652146135584,OsSbN3,6.193423334868799,6.193423334868799,0.0
5517,perov_5517.cif,0.385810280804,0.0018374654734000001,1.18,True,0.926383385081566,TaCrN3,5.670038474406897,5.670038474406897,0.0
5518,perov_5518.cif,0.11897452800000001,0.0018374654734000001,3.3,True,0.0,IrSrO2N,5.354749059015765,5.354749059015765,0.0
5519,perov_5519.cif,0.17561749819000003,0.0036749309468000002,1.8,True,0.9916674745775024,AlRuO2F,6.111553890213469,6.111553890213469,0.0
5520,perov_5520.cif,0.25912251131299996,0.0018374654734000001,0.98,True,0.5927981559804483,GaOsO3,5.820613378853168,5.820613378853168,0.0
5521,perov_5521.cif,0.19552309481199998,0.0018374654734000001,1.34,True,3.4915283668864037,CuCoO3,6.067730449808542,6.067730449808542,0.0
5522,perov_5522.cif,0.07212262438730001,0.0018374654734000001,1.4,True,0.0,KLaO2S,4.811057297757297,4.811057297757297,0.0
5523,perov_5523.cif,0.40143735560800003,0.0018374654734000001,1.96,True,-0.005021046341032311,HfIrO2N,5.957773657473738,5.957773657473738,0.0
5524,perov_5524.cif,0.20568744105999998,0.0036749309468000002,0.94,True,2.922682236605464,ZnMnOFN,6.2364380625442095,6.2364380625442095,0.0
5525,perov_5525.cif,0.212059512331,0.0036749309468000002,0.68,True,0.1916652498753244,BaCuO2F,5.8896664220901656,5.8896664220901656,0.0
5526,perov_5526.cif,0.13852681504699998,0.0018374654734000001,2.02,True,2.074026283703688,AuPbO2N,6.212264744789972,6.212264744789972,0.0
5527,perov_5527.cif,0.164670775347,0.0018374654734000001,2.26,True,3.13906737928004,MoHgO2S,5.9050433395028925,5.9050433395028925,0.0
5528,perov_5528.cif,0.239486120892,0.0018374654734000001,1.2,True,-0.6265054899884038,TiLiO2S,5.16122967409604,5.16122967409604,0.0
5529,perov_5529.cif,0.270633184694,0.0018374654734000001,1.32,True,0.2268541105256059,TaGaN3,5.501833122073389,5.501833122073389,0.0
5530,perov_5530.cif,0.06271859423159999,0.0018374654734000001,3.06,True,0.0,AuCsO2S,5.367846065548674,5.367846065548674,0.0
5531,perov_5531.cif,0.278567604082,0.0018374654734000001,1.42,True,1.1065645223383065,ReAlO2S,5.387731550767209,5.387731550767209,0.0
5532,perov_5532.cif,0.115676945342,0.0018374654734000001,2.5,True,0.022025080960107246,BeNaN3,5.5709445341076815,5.5709445341076815,0.0
5533,perov_5533.cif,0.17030562790399997,0.0018374654734000001,2.12,True,0.7252307906711017,MgCdN3,5.7677661685921375,5.7677661685921375,0.0
5534,perov_5534.cif,0.174611383318,0.0018374654734000001,1.42,True,1.3749997971464687,CuNiO2N,6.053004694675198,6.053004694675198,0.0
5535,perov_5535.cif,0.27204679035100005,0.0018374654734000001,1.34,True,0.0013623307512098395,PbRhON2,5.8164281944235325,5.8164281944235325,0.0
5536,perov_5536.cif,0.278036496591,0.0018374654734000001,0.92,True,0.2487074482614169,PbRuO2N,5.910950135445239,5.910950135445239,0.0
5537,perov_5537.cif,0.29352903777899997,0.0018374654734000001,1.48,True,0.16942808056326975,TaPdON2,5.918362103790344,5.918362103790344,0.0
5538,perov_5538.cif,0.21426819502799999,0.0018374654734000001,0.6,True,0.021324758573456396,RuNbON2,5.902381281745553,5.902381281745553,0.0
5539,perov_5539.cif,0.14902048122300002,0.0036749309468000002,2.12,True,2.0098830055554866,BMnOFN,6.190932511686988,6.190932511686988,0.0
5540,perov_5540.cif,0.283728058039,0.0036749309468000002,1.22,True,-1.5698556128636016,TaFeO2F,6.287385865865637,6.287385865865637,0.0
5541,perov_5541.cif,0.285303845062,0.0018374654734000001,0.38,True,0.003239024798958212,YTaN3,5.498390169987969,5.498390169987969,0.0
5542,perov_5542.cif,0.285330003969,0.0018374654734000001,0.18,True,0.9998551645541448,BaTiO2N,5.202542665156175,5.202542665156175,0.0
5543,perov_5543.cif,0.218445539712,0.0018374654734000001,2.9,True,1.2034567402040963,CoLiON2,5.525603903727078,5.525603903727078,0.0
5544,perov_5544.cif,0.197927023546,0.0018374654734000001,1.24,True,3.6648712708553215,MoPbO3,5.784686499644853,5.784686499644853,0.0
5545,perov_5545.cif,0.107404604746,0.0018374654734000001,0.84,True,1.0736050241900938,RbPbO3,5.2228803582812215,5.2228803582812215,0.0
5546,perov_5546.cif,0.35851804153800004,0.0036749309468000002,1.4,True,2.885062181017391e-15,HfReOFN,6.002549824596289,6.002549824596289,0.0
5547,perov_5547.cif,0.188743931608,0.0018374654734000001,0.78,True,-3.3846203352960784,FeHfO2N,5.640024040583116,5.640024040583116,0.0
5548,perov_5548.cif,0.16134218148600002,0.0018374654734000001,2.1,True,4.246406803571573,FeHgO3,6.1846666025053825,6.1846666025053825,0.0
5549,perov_5549.cif,0.39581797097800003,0.0018374654734000001,1.16,True,0.7989712950823707,ZrMoO2N,5.668368432893447,5.668368432893447,0.0
5550,perov_5550.cif,0.26700021381,0.0018374654734000001,1.42,True,-0.001378009959413563,SbBiO2N,6.066547253460003,6.066547253460003,0.0
5551,perov_5551.cif,0.27625672606,0.0018374654734000001,2.02,True,-1.2172253695036708,TiPtO3,6.064735205985589,6.064735205985589,0.0
5552,perov_5552.cif,0.24146356638799998,0.0018374654734000001,1.44,True,0.8153761225864287,AlNiN3,5.583572868705923,5.583572868705923,0.0
5553,perov_5553.cif,0.281378549657,0.0018374654734000001,1.0,True,0.8124552558985982,AgReN3,5.848252498887812,5.848252498887812,0.0
5554,perov_5554.cif,0.1665171021,0.0018374654734000001,1.56,True,0.3395196574704897,GeAuO3,6.469395687374866,6.469395687374866,0.0
5555,perov_5555.cif,0.26818969015599997,0.0018374654734000001,2.74,True,3.8699972247418937,MnCsN3,5.00170481515267,5.00170481515267,0.0
5556,perov_5556.cif,0.265068952407,0.0018374654734000001,1.7,True,0.004745340264605602,OsPtO2S,6.259056591740204,6.259056591740204,0.0
5557,perov_5557.cif,0.331933709427,0.0018374654734000001,0.9,True,1.9955216242025688,MoGeON2,5.898441103812249,5.898441103812249,0.0
5558,perov_5558.cif,0.27604765262,0.0018374654734000001,1.36,True,0.5306866889967844,HfYO2S,5.209368502539988,5.209368502539988,0.0
5559,perov_5559.cif,0.0284427673006,0.0018374654734000001,1.84,True,0.0,RbCaO2S,4.485426815199288,4.485426815199288,0.0
5560,perov_5560.cif,0.235766471243,0.0018374654734000001,0.86,True,2.1462723226357205,MoTiO2S,5.435666558495172,5.435666558495172,0.0
5561,perov_5561.cif,0.163471962481,0.0036749309468000002,1.24,True,1.360077270661339,SnCdOFN,6.414022213498239,6.414022213498239,0.0
5562,perov_5562.cif,0.227588783045,0.0018374654734000001,1.04,True,0.2294368479039921,SiTaO2S,5.855368463324009,5.855368463324009,0.0
5563,perov_5563.cif,0.139413061821,0.0018374654734000001,2.32,True,3.0723411668276697,NaBiN3,5.378460492884705,5.378460492884705,0.0
5564,perov_5564.cif,0.20916886251400002,0.0018374654734000001,1.28,True,2.999612114719662,SrBeO2N,5.263444983342555,5.263444983342555,0.0
5565,perov_5565.cif,0.20511895973400002,0.0036749309468000002,1.14,False,-3.63150008373112e-15,MgSnOFN,6.403773994995492,6.003773994995493,0.4
5566,perov_5566.cif,0.127365543193,0.0018374654734000001,0.94,True,0.9977199504183608,GeInO2S,5.499205795932936,5.499205795932936,0.0
5567,perov_5567.cif,0.24581258000300002,0.0018374654734000001,0.38,True,0.00031650194982013597,GeWON2,6.042474985726504,6.042474985726504,0.0
5568,perov_5568.cif,0.353624497276,0.0018374654734000001,0.58,True,0.058677367048051814,YNbO2N,5.548748077086722,5.548748077086722,0.0
5569,perov_5569.cif,0.307322364726,0.0018374654734000001,1.46,True,1.2508669817336866,HgSiON2,6.295471333811276,6.295471333811276,0.0
5570,perov_5570.cif,0.194900901095,0.0018374654734000001,1.16,True,0.1628596406490512,BeScO2S,5.652812452415526,5.652812452415526,0.0
5571,perov_5571.cif,0.199307947515,0.0036749309468000002,1.68,True,3.5191683301968246,MoPdO2F,6.340055504810896,6.340055504810896,0.0
5572,perov_5572.cif,0.291065680188,0.0036749309468000002,0.98,True,1.0058702794819396,NbMoOFN,6.162840713578397,6.162840713578397,0.0
5573,perov_5573.cif,0.174600560031,0.0018374654734000001,1.02,True,-0.7488927470685611,TlInO3,5.9192106182279165,5.9192106182279165,0.0
5574,perov_5574.cif,0.251448482829,0.0018374654734000001,1.62,True,0.9995376024428282,NbInN3,5.440076207217702,5.440076207217702,0.0
5575,perov_5575.cif,0.20285325383000002,0.0036749309468000002,0.86,True,1.7715361718154166e-09,PdAlO2F,6.0979118927569145,6.0979118927569145,0.0
5576,perov_5576.cif,0.340254802332,0.0018374654734000001,1.02,True,0.3711271018457527,MoFeON2,5.752953817685749,5.752953817685749,0.0
5577,perov_5577.cif,0.164828583977,0.0018374654734000001,0.94,True,0.31870354949817425,HgYO2S,5.67241902076977,5.67241902076977,0.0
5578,perov_5578.cif,0.261754796086,0.0018374654734000001,2.64,True,-2.019877652688674,MoCsN3,5.049197876425528,5.049197876425528,0.0
5579,perov_5579.cif,0.15648510757099998,0.0018374654734000001,3.94,True,0.0,RbCsN3,4.558822058114508,4.558822058114508,0.0
5580,perov_5580.cif,0.0242607439904,0.0018374654734000001,1.92,True,0.0,RbBaO2S,4.666015720966467,4.666015720966467,0.0
5581,perov_5581.cif,0.33590798869499994,0.0018374654734000001,2.04,True,-3.4921690893523936,ReOsO2N,6.0466595798322285,6.0466595798322285,0.0
5582,perov_5582.cif,0.114485582334,0.0036749309468000002,1.82,True,0.0,PdMgOFN,6.246464542088053,6.246464542088053,0.0
5583,perov_5583.cif,0.315936129888,0.0018374654734000001,1.64,True,-0.31698182176786194,OsBeO2N,6.293987274251453,6.293987274251453,0.0
5584,perov_5584.cif,0.175431532844,0.0036749309468000002,0.68,True,0.015480653128456362,AgVOFN,6.192886456238778,6.192886456238778,0.0
5585,perov_5585.cif,0.18225922205200001,0.0018374654734000001,1.72,True,1.1855252873740714,NaAsON2,5.698977016523008,5.698977016523008,0.0
5586,perov_5586.cif,0.363319584114,0.0018374654734000001,1.06,True,0.008149798249156959,HfTaON2,5.611518599389637,5.611518599389637,0.0
5587,perov_5587.cif,0.14017222902,0.0018374654734000001,2.66,True,4.081610446235627,ZnMgN3,5.772964704450937,5.772964704450937,0.0
5588,perov_5588.cif,0.0969446109288,0.0018374654734000001,1.7,True,0.0,LiPdO2N,5.602865201501147,5.602865201501147,0.0
5589,perov_5589.cif,0.10096036175100001,0.0018374654734000001,1.14,True,0.0,SnSrO3,5.1638863558351416,5.1638863558351416,0.0
5590,perov_5590.cif,0.292635560889,0.0018374654734000001,0.46,True,0.0022359418352237976,CaTaO2S,5.017846536579795,5.017846536579795,0.0
5591,perov_5591.cif,0.113098531699,0.0018374654734000001,1.38,True,0.5764252359267452,LiCuO2S,5.438072200273435,5.438072200273435,0.0
5592,perov_5592.cif,0.318176958598,0.0018374654734000001,1.44,True,-0.03630167847321127,ZrTeO3,6.112399497390412,6.112399497390412,0.0
5593,perov_5593.cif,0.278929939471,0.0018374654734000001,1.6,True,0.00040604718305203857,PtVN3,5.988970663106174,5.988970663106174,0.0
5594,perov_5594.cif,0.19517598751600002,0.0018374654734000001,1.9,True,0.2344597816709601,IrNaON2,5.707553393965049,5.707553393965049,0.0
5595,perov_5595.cif,0.298875505587,0.0036749309468000002,1.86,True,0.26324759938684045,ScOsO2F,6.263530572487849,6.263530572487849,0.0
5596,perov_5596.cif,0.21256252905099998,0.0036749309468000002,1.3,True,3.8511258450541934,RuHfOFN,6.142559922824281,6.142559922824281,0.0
5597,perov_5597.cif,0.186095620319,0.0036749309468000002,1.26,True,0.783778858962723,PbTlOFN,6.562365456409906,6.562365456409906,0.0
5598,perov_5598.cif,0.223730144408,0.0018374654734000001,3.92,True,2.4020326490852995,ReBaN3,5.286600343506909,5.286600343506909,0.0
5599,perov_5599.cif,0.221301191692,0.0018374654734000001,1.32,True,1.233671693695502,BaHgO2N,5.6517888988880625,5.6517888988880625,0.0
5600,perov_5600.cif,0.061545532889099995,0.0018374654734000001,2.38,True,4.999531704969477,LiYN3,5.168828018987818,5.168828018987818,0.0
5601,perov_5601.cif,0.21626395011500002,0.0018374654734000001,1.14,True,0.0001908568987474268,SrPtO2S,5.234233655512148,5.234233655512148,0.0
5602,perov_5602.cif,0.276848900535,0.0018374654734000001,0.68,True,1.2259524866244007,SrRuO2N,5.174559374493871,5.174559374493871,0.0
5603,perov_5603.cif,0.261391321609,0.0018374654734000001,1.48,True,0.027232653306260343,SrRhON2,5.091813050332504,5.091813050332504,0.0
5604,perov_5604.cif,0.232468852887,0.0018374654734000001,1.56,True,0.3124018963192601,BeIrO3,6.4509615467016665,6.4509615467016665,0.0
5605,perov_5605.cif,0.26225814275,0.0018374654734000001,0.5,True,1.806078561869956,BiVO2S,5.539938351831231,5.539938351831231,0.0
5606,perov_5606.cif,0.273027484004,0.0036749309468000002,1.66,True,3.1738006609776553e-15,ScRhOFN,6.061763771486825,6.061763771486825,0.0
5607,perov_5607.cif,0.182611030266,0.0018374654734000001,1.6,True,-1.551181831261064,RuCaO2N,5.274143130553715,5.274143130553715,0.0
5608,perov_5608.cif,0.163025580926,0.0036749309468000002,2.1,True,2.160248975444503,PtAuOFN,7.121348261652262,7.121348261652262,0.0
5609,perov_5609.cif,0.14558949309699998,0.0018374654734000001,0.7,True,1.9970556808380235,KSnO2N,5.326987000391625,5.326987000391625,0.0
5610,perov_5610.cif,0.211876751184,0.0018374654734000001,2.34,True,4.386060634660722,OsPbO3,6.052414705626322,6.052414705626322,0.0
5611,perov_5611.cif,0.215391590369,0.0018374654734000001,0.92,True,0.001803959392896459,LiReO2S,5.31885610347899,5.31885610347899,0.0
5612,perov_5612.cif,0.123866277629,0.0018374654734000001,1.28,True,2.9547301402201733,NaCoO2S,5.3350529059487855,5.3350529059487855,0.0
5613,perov_5613.cif,0.259528838103,0.0018374654734000001,1.74,True,3.6383609147339113,MnSbN3,5.863778843350652,5.863778843350652,0.0
5614,perov_5614.cif,0.22426718082699998,0.0018374654734000001,0.96,False,1.2732839511642167e-05,BiTlO3,6.932674196878791,5.592674196878791,1.3
5615,perov_5615.cif,0.199725394223,0.0018374654734000001,1.02,True,1.0011068127970622,NiMnO2S,5.652950605566031,5.652950605566031,0.0
5616,perov_5616.cif,0.30686936989700003,0.0036749309468000002,1.02,True,0.6936055341304551,YInO2F,5.6655047990724885,5.6655047990724885,0.0
5617,perov_5617.cif,0.21462224490100001,0.0018374654734000001,0.92,True,-0.04304095965435641,ScZnO3,5.761005386365764,5.761005386365764,0.0
5618,perov_5618.cif,0.238577956079,0.0036749309468000002,1.88,True,2.58461810000777,NbPtO2F,6.664862186762035,6.664862186762035,0.0
5619,perov_5619.cif,0.229351996919,0.0018374654734000001,0.52,False,7.064721446109041e-05,SnZrO2S,7.052605396631111,4.15260539663111,2.9
5620,perov_5620.cif,0.216206706814,0.0018374654734000001,0.7,True,0.001748680572543293,GaWN3,5.580089663954881,5.580089663954881,0.0