,id,fermi level,fermi width,e_form,gap is direct,mu_b,formula,vbm,cbm,gap gllbsc
6800,perov_6800.cif,0.320174062938,0.0018374654734000001,0.86,True,0.00617102761291477,PbSiO2N,5.9777284635682895,5.9777284635682895,0.0
6801,perov_6801.cif,0.304099324912,0.0018374654734000001,1.82,True,-0.0008727968427097082,HfInO2N,5.343774057019106,5.343774057019106,0.0
6802,perov_6802.cif,0.223984295842,0.0036749309468000002,1.3,True,0.8754312202892114,AsSbOFN,6.810194960402912,6.810194960402912,0.0
6803,perov_6803.cif,0.18673136656599998,0.0018374654734000001,1.28,True,-2.5353829942094297,CrZnO3,5.886505794930151,5.886505794930151,0.0
6804,perov_6804.cif,0.266965906775,0.0018374654734000001,1.06,True,-3.994708371135727,MnOsO2S,5.773596476103827,5.773596476103827,0.0
6805,perov_6805.cif,0.281072258727,0.0018374654734000001,0.7,True,-4.000495188499117,VCrO2N,5.602656037906227,5.602656037906227,0.0
6806,perov_6806.cif,0.277505006959,0.0018374654734000001,1.06,True,0.0,VCoON2,5.726996937207677,5.726996937207677,0.0
6807,perov_6807.cif,0.245055890637,0.0018374654734000001,1.32,True,-0.7639355148821632,IrSnO2N,6.240606730884669,6.240606730884669,0.0
6808,perov_6808.cif,0.225997602668,0.0018374654734000001,1.02,True,0.9033768610932356,AgOsO2S,5.9815595846040726,5.9815595846040726,0.0
6809,perov_6809.cif,0.271631948575,0.0018374654734000001,1.44,True,0.5764466648775866,SbCuO2N,6.172041295806049,6.172041295806049,0.0
6810,perov_6810.cif,0.20744658913,0.0018374654734000001,2.5,True,-0.0021919526575179442,KBON2,5.287218898750184,5.287218898750184,0.0
6811,perov_6811.cif,0.219496364193,0.0018374654734000001,1.16,True,-2.406457493427776e-05,AsBO2S,6.037021183630196,6.037021183630196,0.0
6812,perov_6812.cif,0.22323617477699997,0.0018374654734000001,1.04,True,-1.2735784014950015e-05,SbPdO2S,5.974429178653594,5.974429178653594,0.0
6813,perov_6813.cif,0.239983975468,0.0018374654734000001,1.86,True,-0.5831909795109826,TlPdON2,6.274212601555057,6.274212601555057,0.0
6814,perov_6814.cif,0.192602464495,0.0036749309468000002,0.5,True,-3.934684691619227,TlFeO2F,6.665424477016888,6.665424477016888,0.0
6815,perov_6815.cif,0.144271537069,0.0018374654734000001,1.14,True,0.9426183550042068,NiAlO2S,5.488676181169037,5.488676181169037,0.0
6816,perov_6816.cif,0.154880401838,0.0036749309468000002,2.6,True,0.9102411432584816,SiAuOFN,6.901008725015893,6.901008725015893,0.0
6817,perov_6817.cif,0.23233853758900003,0.0018374654734000001,1.32,True,2.9550747345849437,AuCoO2S,6.143345225027252,6.143345225027252,0.0
6818,perov_6818.cif,0.06515502276719999,0.0036749309468000002,2.02,True,1.9374512508875168,CsLiOFN,5.187500426193831,5.187500426193831,0.0
6819,perov_6819.cif,0.508454587953,0.0018374654734000001,0.48,True,-0.057692104580452576,LaSiO3,5.722683993742227,5.722683993742227,0.0
6820,perov_6820.cif,0.177235982049,0.0018374654734000001,2.66,True,5.875059892572418,FeHgON2,6.098346080565423,6.098346080565423,0.0
6821,perov_6821.cif,0.158153306151,0.0018374654734000001,0.84,True,3.113524749083549,CoGaO3,5.672841800637302,5.672841800637302,0.0
6822,perov_6822.cif,0.194785553266,0.0036749309468000002,1.7,True,-0.5388381900402971,CaAuOFN,5.9139237686965345,5.9139237686965345,0.0
6823,perov_6823.cif,0.218239828823,0.0018374654734000001,1.62,True,1.8814798763071396,PtSnN3,6.205622837025298,6.205622837025298,0.0
6824,perov_6824.cif,0.181893160685,0.0018374654734000001,1.22,True,0.0014270378785639086,RhAlO2S,5.463497705410052,5.463497705410052,0.0
6825,perov_6825.cif,0.29031410915100003,0.0036749309468000002,1.36,True,3.096037589137649e-15,AlSiO2F,6.1805985178402665,6.1805985178402665,0.0
6826,perov_6826.cif,0.33574974725199996,0.0036749309468000002,0.38,True,5.312387912681515e-06,BaNbOFN,5.717352647118681,5.717352647118681,0.0
6827,perov_6827.cif,0.28915135635899997,0.0036749309468000002,0.12,True,-2.966716670143462e-15,BaYO2F,5.502920413087908,5.502920413087908,0.0
6828,perov_6828.cif,0.217088772971,0.0018374654734000001,0.82,True,3.466914470879719,ZnFeO3,5.990377543136872,5.990377543136872,0.0
6829,perov_6829.cif,0.219635209432,0.0018374654734000001,1.42,True,4.2565935179760865,FePtO3,6.265463891867436,6.265463891867436,0.0
6830,perov_6830.cif,0.19598386322500003,0.0018374654734000001,2.34,True,-1.3256378335890802,TiHgO3,5.986526445421463,5.986526445421463,0.0
6831,perov_6831.cif,0.313396841492,0.0018374654734000001,1.82,True,0.0015520746458221881,NiBN3,5.917014591372701,5.917014591372701,0.0
6832,perov_6832.cif,0.26835232539799997,0.0018374654734000001,0.9,True,0.5930493171501575,InNiO3,5.662912611741363,5.662912611741363,0.0
6833,perov_6833.cif,0.38724680346999996,0.0018374654734000001,1.8,True,1.248991896357435,ReMnN3,5.644924127455473,5.644924127455473,0.0
6834,perov_6834.cif,0.039416044788300006,0.0036749309468000002,3.1,True,0.0,AsRbOFN,5.886462324438187,5.886462324438187,0.0
6835,perov_6835.cif,0.15329247243799998,0.0018374654734000001,1.36,True,0.0,CsZnO3,5.294656757641079,5.294656757641079,0.0
6836,perov_6836.cif,0.278470436072,0.0036749309468000002,0.36,True,-5.0924781305435494e-15,BaBiO2F,6.088998800284353,5.488998800284353,0.6
6837,perov_6837.cif,0.214558744454,0.0036749309468000002,0.42,True,1.9268308503085559e-10,TlGeO2F,6.833987366407928,6.833987366407928,0.0
6838,perov_6838.cif,0.2894106671,0.0036749309468000002,0.66,True,-0.5948878298855396,SbTiO2F,6.2939067349805775,6.2939067349805775,0.0
6839,perov_6839.cif,0.247204946918,0.0018374654734000001,0.78,True,4.205009333236369,CoCrO3,5.846275333177606,5.846275333177606,0.0
6840,perov_6840.cif,0.233258657136,0.0036749309468000002,1.82,True,5.8545192352861124e-15,YHgOFN,6.243789607480843,6.243789607480843,0.0
6841,perov_6841.cif,0.234973348624,0.0018374654734000001,1.66,True,2.7071194545274313,SrAlN3,4.769003620395085,4.769003620395085,0.0
6842,perov_6842.cif,0.28674470287500003,0.0018374654734000001,1.88,True,4.026631003175938,RuIrO3,6.342021936512393,6.342021936512393,0.0
6843,perov_6843.cif,0.407925778134,0.0018374654734000001,0.92,True,2.689147661554613,ZrMnON2,5.575728575340787,5.575728575340787,0.0
6844,perov_6844.cif,0.291085804191,0.0018374654734000001,1.26,True,5.279488185147919,ReNbO3,5.849488055738192,5.849488055738192,0.0
6845,perov_6845.cif,0.0716939408434,0.0018374654734000001,2.48,True,1.9999998736963496,BScO3,5.718968935274796,5.718968935274796,0.0
6846,perov_6846.cif,0.24157606065499998,0.0036749309468000002,0.56,True,0.8210367391621639,SrNiO2F,5.534834901085676,5.534834901085676,0.0
6847,perov_6847.cif,0.263269785002,0.0018374654734000001,0.8,True,-0.0005976960781619664,HgSbO3,6.4085449382778545,6.4085449382778545,0.0
6848,perov_6848.cif,0.39341162189499995,0.0018374654734000001,-0.14,True,6.458763840200275e-06,LaWN3,5.5158515634497975,5.5158515634497975,0.0
6849,perov_6849.cif,0.17148307740600002,0.0018374654734000001,1.46,True,0.0008121434267920336,PtPbO3,6.212092945350914,6.212092945350914,0.0
6850,perov_6850.cif,0.27043835427499996,0.0018374654734000001,0.66,True,0.5562313377859134,MgSiO2N,5.934067973233667,5.934067973233667,0.0
6851,perov_6851.cif,0.287486749862,0.0036749309468000002,0.64,False,5.579286902031336e-15,BiGaOFN,6.105995807202755,5.8059958072027555,0.3
6852,perov_6852.cif,0.327159067332,0.0018374654734000001,1.32,True,0.0077549314252376425,WBeON2,6.1193107901174155,6.1193107901174155,0.0
6853,perov_6853.cif,0.16225043850600002,0.0018374654734000001,2.16,True,1.3508688951100505,SiZnO3,6.184012780401014,6.184012780401014,0.0
6854,perov_6854.cif,0.114977735176,0.0018374654734000001,2.4,True,0.0024180653805849573,GaHgON2,5.814827770100577,5.814827770100577,0.0
6855,perov_6855.cif,0.116121885649,0.0036749309468000002,2.84,True,0.8955409843134045,BeAuOFN,6.941133573658054,6.941133573658054,0.0
6856,perov_6856.cif,0.293860952291,0.0018374654734000001,2.5,True,3.6558145180583423,IrPtO3,6.618449754508736,6.618449754508736,0.0
6857,perov_6857.cif,0.20230438680399998,0.0036749309468000002,0.96,True,1.0132046347368877e-14,TeInO2F,6.3153139318215405,6.3153139318215405,0.0
6858,perov_6858.cif,0.37484679992700004,0.0036749309468000002,0.9,True,-1.4584660223247722e-15,LaSiO2F,6.105636086305058,6.105636086305058,0.0
6859,perov_6859.cif,0.277831420992,0.0018374654734000001,1.98,True,0.002849727278803726,RhSbN3,6.036186995468972,6.036186995468972,0.0
6860,perov_6860.cif,0.280773050503,0.0018374654734000001,1.28,True,-0.007920000752993112,HfSbO3,5.885403039926751,5.885403039926751,0.0
6861,perov_6861.cif,0.190251159015,0.0018374654734000001,1.04,True,0.9976880160967879,CdAlO2S,5.4961404102747355,5.4961404102747355,0.0
6862,perov_6862.cif,0.0900943268415,0.0018374654734000001,3.54,True,2.358141513932047,PtCsO2S,5.3301070245467566,5.3301070245467566,0.0
6863,perov_6863.cif,0.21155106683,0.0018374654734000001,2.92,True,0.0,IrTlO2N,6.553112035470008,6.553112035470008,0.0
6864,perov_6864.cif,0.179696298477,0.0018374654734000001,1.58,True,-0.012477687912603126,PtPbO2N,6.168588955459295,6.168588955459295,0.0
6865,perov_6865.cif,0.252804634689,0.0036749309468000002,1.76,True,4.690895781486507,OsNiO2F,6.618513263226569,6.618513263226569,0.0
6866,perov_6866.cif,0.149901348619,0.0018374654734000001,2.6,True,4.443916043797609,GaTlN3,5.832639183070287,5.832639183070287,0.0
6867,perov_6867.cif,0.118990886777,0.0036749309468000002,1.12,True,0.0,TlAgO2F,6.885770998630083,6.685770998630082,0.2
6868,perov_6868.cif,0.129345212389,0.0036749309468000002,1.18,True,1.425615259468298,TlPbOFN,6.562365456409906,6.562365456409906,0.0
6869,perov_6869.cif,0.185066448591,0.0018374654734000001,1.56,True,1.99102310340408,WMgO2S,5.662038997536036,5.662038997536036,0.0
6870,perov_6870.cif,0.209231760862,0.0018374654734000001,0.84,True,0.0006185492667771796,GaGeO2S,5.534235417882749,5.534235417882749,0.0
6871,perov_6871.cif,0.206801223984,0.0018374654734000001,1.94,True,-1.1044222821587222e-05,TeCaON2,5.449689574020836,5.449689574020836,0.0
6872,perov_6872.cif,0.10742273687699999,0.0036749309468000002,1.16,True,0.0,CsZnO2F,5.648966009551152,5.648966009551152,0.0
6873,perov_6873.cif,0.175753486853,0.0018374654734000001,0.84,True,0.8553955855442297,GaTiON2,5.352621993796507,5.352621993796507,0.0
6874,perov_6874.cif,0.271963457804,0.0018374654734000001,1.46,True,8.953836273306592e-06,SiAsON2,6.314650581383022,6.314650581383022,0.0
6875,perov_6875.cif,0.20543542634,0.0018374654734000001,1.74,True,0.00010784843469124894,BBO2S,5.8870733139952245,5.687073313995227,0.2
6876,perov_6876.cif,0.203838125455,0.0018374654734000001,1.36,True,0.0035597969525440467,ZnRuN3,5.987356965010388,5.987356965010388,0.0
6877,perov_6877.cif,0.17433229233,0.0018374654734000001,4.34,True,3.917915903883421,PtCsN3,5.422262124274073,5.422262124274073,0.0
6878,perov_6878.cif,0.177973078492,0.0018374654734000001,2.12,True,-0.4471740364021802,BLiO2N,5.561982655275863,5.561982655275863,0.0
6879,perov_6879.cif,0.10644963930500001,0.0036749309468000002,1.54,True,1.9991959795916543,PbSrOFN,5.362310313394205,5.362310313394205,0.0
6880,perov_6880.cif,0.319163271012,0.0018374654734000001,1.04,True,0.565975277945384,CdOsO2N,6.168327013092991,6.168327013092991,0.0
6881,perov_6881.cif,0.0964433040286,0.0036749309468000002,3.28,True,0.0,RuCsO2F,5.6616036437593475,5.6616036437593475,0.0
6882,perov_6882.cif,0.37655681502800004,0.0018374654734000001,1.88,True,-0.8807982955193159,HfSbO2N,5.844186896412883,5.844186896412883,0.0
6883,perov_6883.cif,0.161309847089,0.0036749309468000002,1.4,True,-0.16074586841335572,AsInOFN,6.2270669637517155,6.2270669637517155,0.0
6884,perov_6884.cif,0.310776667407,0.0018374654734000001,0.96,True,-0.00026741889869839647,BiSiO2S,5.858221958082213,5.858221958082213,0.0
6885,perov_6885.cif,0.26793099604000004,0.0018374654734000001,1.26,True,-0.17270369634869145,CsMoON2,5.084807357777402,5.084807357777402,0.0
6886,perov_6886.cif,0.345823522003,0.0018374654734000001,1.06,True,0.001614086574040385,InSiON2,5.672395305083319,5.672395305083319,0.0
6887,perov_6887.cif,0.23273825529199998,0.0018374654734000001,0.88,True,2.8346118879427364,GaFeO2S,5.3977314030825445,5.3977314030825445,0.0
6888,perov_6888.cif,0.179597372597,0.0018374654734000001,2.82,True,-0.07510726159961388,TeBaON2,5.669100907098064,5.669100907098064,0.0
6889,perov_6889.cif,0.12444204197999999,0.0018374654734000001,1.36,True,2.3252451238144847,LiTaN3,5.4348894795742035,5.4348894795742035,0.0
6890,perov_6890.cif,0.23627166832600002,0.0018374654734000001,3.44,True,0.3111093140685525,HfRbO2N,5.051483280982966,5.051483280982966,0.0
6891,perov_6891.cif,0.252460173865,0.0036749309468000002,1.76,True,1.5727613597874353,IrRuOFN,6.719033052243102,6.719033052243102,0.0
6892,perov_6892.cif,0.293161966783,0.0018374654734000001,1.22,True,0.00417431549658609,CaAsON2,5.411435291899075,5.411435291899075,0.0
6893,perov_6893.cif,0.238912531039,0.0036749309468000002,0.66,True,3.4403608985647898,VNbO2F,6.107741314637361,6.107741314637361,0.0
6894,perov_6894.cif,0.29115424731199996,0.0018374654734000001,1.56,True,0.5937896336442136,HfAsO2S,5.766099298463902,5.766099298463902,0.0
6895,perov_6895.cif,0.198012524025,0.0036749309468000002,1.94,True,0.0,VBiOFN,6.097964445256085,6.097964445256085,0.0
6896,perov_6896.cif,0.41230887147600004,0.0018374654734000001,2.08,True,0.7364566939396441,TeBN3,6.184813010330527,6.184813010330527,0.0
6897,perov_6897.cif,0.138418987319,0.0018374654734000001,0.28,False,0.00027608499005334715,NaTaO2S,6.484474550997028,4.084474550997029,2.4
6898,perov_6898.cif,0.14004053766799998,0.0018374654734000001,2.04,True,3.920041400776204,ZnLiO2N,5.602865201501147,5.602865201501147,0.0
6899,perov_6899.cif,0.149977491341,0.0036749309468000002,1.3,True,1.9721964531222849,CuBeO2F,6.6451219461292945,6.6451219461292945,0.0
6900,perov_6900.cif,0.159071535678,0.0018374654734000001,1.2,True,-3.8869130060935486,FeAgO2S,5.763122728033791,5.763122728033791,0.0
6901,perov_6901.cif,0.24917556564399998,0.0018374654734000001,1.98,True,0.028309200469735167,AuAlN3,5.894633604539343,5.894633604539343,0.0
6902,perov_6902.cif,0.252633646734,0.0018374654734000001,1.86,True,0.9907993019084884,AlNiO2N,5.662606908091209,5.662606908091209,0.0
6903,perov_6903.cif,0.168007851363,0.0018374654734000001,1.1,True,2.4535939014874617,CoTeO2S,6.082529549121907,6.082529549121907,0.0
6904,perov_6904.cif,0.296072595912,0.0018374654734000001,2.12,True,0.6449851838582851,PtSbN3,6.3568217442774815,6.3568217442774815,0.0
6905,perov_6905.cif,0.180409190029,0.0036749309468000002,1.2,True,3.9963622162490426,RuScO2F,6.160272625811772,6.160272625811772,0.0
6906,perov_6906.cif,0.152601314526,0.0018374654734000001,2.34,True,4.041451954206488,HgPbN3,6.004055075310979,6.004055075310979,0.0
6907,perov_6907.cif,0.17399903023,0.0018374654734000001,1.6,True,-1.7364972755582375,VInO2N,5.402038954254245,5.402038954254245,0.0
6908,perov_6908.cif,0.139477100656,0.0036749309468000002,1.82,True,2.021211613304317,MnLiOFN,5.76737127971963,5.76737127971963,0.0
6909,perov_6909.cif,0.35642038815,0.0018374654734000001,1.04,True,0.9982120767611636,HfCoON2,5.665227133095182,5.665227133095182,0.0
6910,perov_6910.cif,0.40051570196099995,0.0018374654734000001,0.98,True,2.6669267091603652,HfCrO2N,5.542227340324297,5.542227340324297,0.0
6911,perov_6911.cif,0.0438927778405,0.0036749309468000002,1.96,True,3.9932273457044,AgLiOFN,5.97511015862634,5.97511015862634,0.0
6912,perov_6912.cif,0.217147524495,0.0018374654734000001,0.86,True,2.134860747443568,CaCoO2S,5.0658729620590695,5.0658729620590695,0.0
6913,perov_6913.cif,0.14784719103900001,0.0018374654734000001,1.5,True,-0.7820374897369001,ScNaO2N,5.232908464628556,5.232908464628556,0.0
6914,perov_6914.cif,0.10277305839199999,0.0036749309468000002,2.58,True,3.0000865774148195,ReNaO2F,5.8318451371659545,5.8318451371659545,0.0
6915,perov_6915.cif,0.24149730382100001,0.0018374654734000001,1.34,True,0.1020181143979215,CsOsO2S,5.193099720452849,5.193099720452849,0.0
6916,perov_6916.cif,0.29397517473,0.0018374654734000001,1.28,True,-7.701719721059384e-05,AlReN3,5.480882952057726,5.480882952057726,0.0
6917,perov_6917.cif,0.231900923701,0.0018374654734000001,2.0,True,3.6568561108596542,AgNiN3,5.957825457643104,5.957825457643104,0.0
6918,perov_6918.cif,0.0973033687325,0.0036749309468000002,0.7,True,-0.1987136985231649,RbPbO2F,5.572386457970848,5.572386457970848,0.0
6919,perov_6919.cif,0.152196917762,0.0036749309468000002,1.72,True,1.5615902835538724,TiCdO2F,6.180913995648825,6.180913995648825,0.0
6920,perov_6920.cif,0.29976078890700003,0.0036749309468000002,2.0,True,1.2735186661934357,IrBeOFN,6.834448742836366,6.834448742836366,0.0
6921,perov_6921.cif,0.0971480113022,0.0018374654734000001,1.28,True,1.9996530713574792,KGaO2S,4.867087301225292,4.867087301225292,0.0
6922,perov_6922.cif,0.38344960883100004,0.0018374654734000001,1.2,True,0.004911558967283013,BiOsN3,5.991709964926662,5.991709964926662,0.0
6923,perov_6923.cif,0.22107553042,0.0018374654734000001,1.78,True,-0.23767502095325896,AsBiO2N,6.175162789552081,6.175162789552081,0.0
6924,perov_6924.cif,0.18693852061799998,0.0036749309468000002,1.08,True,-0.0018405955622174035,CuRuO2F,6.532903482380796,6.532903482380796,0.0
6925,perov_6925.cif,0.292881584365,0.0018374654734000001,2.38,True,0.0019987132942382857,HfPbN3,5.513932465552573,5.513932465552573,0.0
6926,perov_6926.cif,0.161607816353,0.0018374654734000001,1.44,True,1.0401586801130482,RhPbO3,5.898758241117503,5.898758241117503,0.0
6927,perov_6927.cif,0.248790874047,0.0036749309468000002,0.66,True,0.0008137838790354126,PbNiO2F,6.3224964176663665,6.3224964176663665,0.0
6928,perov_6928.cif,0.197396030522,0.0018374654734000001,1.62,True,2.435132648071816,SiCoO2S,5.911410914026217,5.911410914026217,0.0
6929,perov_6929.cif,0.13183040575,0.0036749309468000002,1.78,True,1.9890856356682605,AuAuOFN,7.1717699235059085,7.1717699235059085,0.0
6930,perov_6930.cif,0.180592832152,0.0018374654734000001,1.7,True,1.3846513409032684,InCdO2N,5.630901840536909,5.630901840536909,0.0
6931,perov_6931.cif,0.342002846431,0.0018374654734000001,1.88,True,1.3982844467135571,TiTeON2,5.962811048359134,5.962811048359134,0.0
6932,perov_6932.cif,0.280271262818,0.0018374654734000001,1.48,True,-1.5243236278957455,WRhO2N,6.003563368897388,6.003563368897388,0.0
6933,perov_6933.cif,0.25409936912,0.0018374654734000001,1.14,True,1.1230541268757364,WRuON2,6.015971880518233,6.015971880518233,0.0
6934,perov_6934.cif,0.210107120649,0.0036749309468000002,1.1,True,1.5472029827280274,AlVOFN,5.80386804579373,5.80386804579373,0.0
6935,perov_6935.cif,0.168571760634,0.0018374654734000001,2.62,True,5.401696360814813,NiInN3,5.544769801929719,5.544769801929719,0.0
6936,perov_6936.cif,0.16681827396600002,0.0018374654734000001,2.32,True,-0.0006230898082670616,HgCsO3,5.466381139570856,5.466381139570856,0.0
6937,perov_6937.cif,0.269028709474,0.0018374654734000001,1.94,True,0.003930781366612735,CaBeN3,5.28986268477274,5.28986268477274,0.0
6938,perov_6938.cif,0.223681601231,0.0018374654734000001,1.24,True,-0.9429606564599152,SnSnON2,5.9341721608429685,5.9341721608429685,0.0
6939,perov_6939.cif,0.19139353931699998,0.0018374654734000001,1.38,True,1.5023561865460415,BCrO3,5.843553602326597,5.843553602326597,0.0
6940,perov_6940.cif,0.09641623547730001,0.0036749309468000002,3.4,True,0.0,OsSrOFN,5.613371615611878,5.613371615611878,0.0
6941,perov_6941.cif,0.22578663636500002,0.0018374654734000001,2.24,True,3.9586299255341335,KPtN3,5.531650830882849,5.531650830882849,0.0
6942,perov_6942.cif,0.14869849357200002,0.0036749309468000002,1.22,True,-0.35269036968141465,LiAsOFN,6.190482444893467,6.190482444893467,0.0
6943,perov_6943.cif,0.23162688415600002,0.0036749309468000002,1.2,True,0.9882535947967152,KSiOFN,5.800166852895575,5.800166852895575,0.0
6944,perov_6944.cif,0.21912793614599999,0.0018374654734000001,1.08,True,0.004970014191687966,TeBiO3,6.262674196878791,6.262674196878791,0.0
6945,perov_6945.cif,0.175911974326,0.0018374654734000001,1.6,True,0.8096240015576868,GePbON2,5.8954131550374065,5.8954131550374065,0.0
6946,perov_6946.cif,0.0871081327489,0.0018374654734000001,2.44,True,1.9999948802046448,BGaO3,5.6702008116893365,5.6702008116893365,0.0