,id,fermi level,fermi width,e_form,gap is direct,mu_b,formula,vbm,cbm,gap gllbsc
6210,perov_6210.cif,0.0862680925497,0.0036749309468000002,1.78,True,2.268049335076512,GaAgOFN,6.048707908839227,6.048707908839227,0.0
6211,perov_6211.cif,0.295143966395,0.0018374654734000001,1.68,True,1.4897738293942078,AsFeN3,6.0740872666233585,6.0740872666233585,0.0
6212,perov_6212.cif,0.121376690409,0.0036749309468000002,0.82,True,4.001461420800658,CrYO2F,5.875906290033813,5.875906290033813,0.0
6213,perov_6213.cif,0.332615391705,0.0018374654734000001,0.82,True,2.6779319440794933,YFeON2,5.526320940397684,5.526320940397684,0.0
6214,perov_6214.cif,0.115108062166,0.0018374654734000001,1.3,True,-0.0003842650151857043,InNaO2S,5.247092379729316,4.747092379729316,0.5
6215,perov_6215.cif,0.286522764769,0.0036749309468000002,1.36,True,-5.251453865237409e-16,YPdO2F,6.0902942401186415,6.0902942401186415,0.0
6216,perov_6216.cif,0.251232308258,0.0018374654734000001,0.46,True,-0.10898286552870033,MoNbO2N,5.776300684982543,5.776300684982543,0.0
6217,perov_6217.cif,0.110214554871,0.0018374654734000001,4.1,True,-1.880403017016096,CrKN3,5.102609199343002,5.102609199343002,0.0
6218,perov_6218.cif,0.224235117282,0.0036749309468000002,1.04,True,-0.3109645019685517,AlGaO2F,5.7087252076521695,5.7087252076521695,0.0
6219,perov_6219.cif,0.106373043782,0.0018374654734000001,1.22,True,-0.4633654590451685,MgSrO2S,4.8360225814202895,4.8360225814202895,0.0
6220,perov_6220.cif,0.230362791316,0.0036749309468000002,1.14,True,7.11163081607041,FeFeOFN,6.231124615514778,6.231124615514778,0.0
6221,perov_6221.cif,0.187534403967,0.0036749309468000002,0.32,True,-3.138960116715718e-12,LiNbO2F,5.8929591932993795,5.8929591932993795,0.0
6222,perov_6222.cif,0.0335421018891,0.0036749309468000002,3.14,True,0.0,CrRbO2F,5.522807371402993,5.522807371402993,0.0
6223,perov_6223.cif,0.242422043426,0.0036749309468000002,1.26,True,-0.05858840385270755,GeIrOFN,6.748633463185536,6.748633463185536,0.0
6224,perov_6224.cif,0.0829905324173,0.0036749309468000002,1.22,True,1.9965343116787173,NaScOFN,5.583085627811178,5.583085627811178,0.0
6225,perov_6225.cif,0.10055741842299999,0.0036749309468000002,1.14,True,0.961749119628884,CuLaO2F,6.032052708492771,6.032052708492771,0.0
6226,perov_6226.cif,0.105984812152,0.0036749309468000002,1.4,True,0.9435880466241322,LiBiOFN,5.883526132969201,5.883526132969201,0.0
6227,perov_6227.cif,0.27718361089000004,0.0018374654734000001,1.02,True,5.037667698104541e-05,AsAsO2N,6.497334418023505,6.497334418023505,0.0
6228,perov_6228.cif,0.293023989053,0.0018374654734000001,0.24,True,0.0037165406703003607,BaNbO2S,5.194156424666798,5.194156424666798,0.0
6229,perov_6229.cif,0.0401113430548,0.0018374654734000001,3.24,True,0.0,AsRbO2S,5.347790837503848,5.347790837503848,0.0
6230,perov_6230.cif,0.196601979331,0.0036749309468000002,0.14,True,-1.0148055989222071,TlVO2F,6.507034441212362,6.507034441212362,0.0
6231,perov_6231.cif,0.022288715929099995,0.0018374654734000001,2.02,True,0.0,KRbO3,4.749886480860325,4.749886480860325,0.0
6232,perov_6232.cif,0.18482001926600003,0.0018374654734000001,0.88,True,0.5584832701013216,BeWN3,6.076456564158647,6.076456564158647,0.0
6233,perov_6233.cif,0.027122390652499998,0.0036749309468000002,2.24,True,0.0,CoSrO2F,5.509444679147443,5.509444679147443,0.0
6234,perov_6234.cif,0.127706660964,0.0036749309468000002,1.38,True,3.9703616680194314,RhMgO2F,6.247526127471319,6.247526127471319,0.0
6235,perov_6235.cif,0.281044419876,0.0018374654734000001,1.1,True,-0.9387799646105852,RuGeO2N,6.11250097975486,6.11250097975486,0.0
6236,perov_6236.cif,0.299852299448,0.0018374654734000001,1.8,True,0.0014379163537157071,HfAuON2,6.0083994544484565,6.0083994544484565,0.0
6237,perov_6237.cif,0.18419460870700002,0.0018374654734000001,1.18,True,8.561154013975171e-05,CaAuO2S,5.372739278841818,5.372739278841818,0.0
6238,perov_6238.cif,0.36106632649099996,0.0018374654734000001,1.62,True,0.00265445367974948,SbTeN3,6.338455755046081,6.338455755046081,0.0
6239,perov_6239.cif,0.22735910081,0.0036749309468000002,1.34,True,1.4923945672430146,RhAlOFN,6.013824096673564,6.013824096673564,0.0
6240,perov_6240.cif,0.297921179117,0.0018374654734000001,1.94,True,0.06617655661589161,PtBeN3,6.369874876302039,6.369874876302039,0.0
6241,perov_6241.cif,0.147066469465,0.0018374654734000001,2.12,True,3.4978835926496537,ZnScN3,5.6408161109257575,5.6408161109257575,0.0
6242,perov_6242.cif,0.332535763624,0.0018374654734000001,1.36,True,1.2671617288671064,WOsN3,6.073974350681308,6.073974350681308,0.0
6243,perov_6243.cif,0.22838572634399998,0.0018374654734000001,2.8,True,2.3333496964901794,WLaON2,5.554752121161237,5.554752121161237,0.0
6244,perov_6244.cif,0.090724559701,0.0036749309468000002,0.96,True,0.0002457892491101177,GaPbO2F,5.932367572710056,5.932367572710056,0.0
6245,perov_6245.cif,0.22334311788000002,0.0018374654734000001,1.56,True,-0.00015287028870014942,YHgO2S,5.67241902076977,5.67241902076977,0.0
6246,perov_6246.cif,0.238807719902,0.0036749309468000002,1.1,True,0.0,CoWO2F,6.450484898054111,6.450484898054111,0.0
6247,perov_6247.cif,0.165805313815,0.0018374654734000001,1.94,True,-0.20563166716852835,BiSrO2N,5.081585488072808,5.081585488072808,0.0
6248,perov_6248.cif,0.17003940884100002,0.0018374654734000001,1.04,True,1.2501185198509877,SnMgO2N,5.8146665867601435,5.8146665867601435,0.0
6249,perov_6249.cif,0.281292184425,0.0018374654734000001,1.24,True,1.3522861527944805,RuFeO2N,5.961733825630809,5.961733825630809,0.0
6250,perov_6250.cif,0.227057692689,0.0018374654734000001,0.92,True,-0.09662029602652174,PbZrON2,5.6257827436514685,5.6257827436514685,0.0
6251,perov_6251.cif,0.247977702354,0.0036749309468000002,1.28,True,4.11842684654876,MnOsOFN,6.355158450616907,6.355158450616907,0.0
6252,perov_6252.cif,0.24194294075999997,0.0036749309468000002,0.92,True,-4.239341508616632e-16,AgOsOFN,6.584069236445463,6.584069236445463,0.0
6253,perov_6253.cif,0.36020707953599995,0.0018374654734000001,1.46,True,0.0004902253664873513,ScTeN3,5.882804402602368,5.882804402602368,0.0
6254,perov_6254.cif,0.274649588871,0.0018374654734000001,1.66,True,1.9397761062554917,AlMnON2,5.437288211602636,5.437288211602636,0.0
6255,perov_6255.cif,0.157235843292,0.0018374654734000001,0.98,True,0.025354711534163243,AsSbO2S,6.186992492869395,6.186992492869395,0.0
6256,perov_6256.cif,0.193635136888,0.0036749309468000002,1.14,True,1.4992741550967172,NiAlOFN,6.041538746226169,6.041538746226169,0.0
6257,perov_6257.cif,0.147974069915,0.0018374654734000001,2.06,True,0.00014176357185746724,SiAuO2S,6.269495869524044,6.269495869524044,0.0
6258,perov_6258.cif,0.135484930762,0.0018374654734000001,2.3,True,-0.3170552240583159,PdCdO2N,6.053096813493072,6.053096813493072,0.0
6259,perov_6259.cif,0.05040601819419999,0.0018374654734000001,2.92,True,1.703229863191854,BYO2N,5.626968289299665,5.626968289299665,0.0
6260,perov_6260.cif,0.0620256919234,0.0018374654734000001,2.4,True,0.0,CsLiO2S,4.712791099260861,4.712791099260861,0.0
6261,perov_6261.cif,0.210588858355,0.0036749309468000002,1.36,True,2.9047696720655227,AuCoOFN,6.762151197001471,6.762151197001471,0.0
6262,perov_6262.cif,0.09866410906630001,0.0036749309468000002,1.28,True,2.9968822270590083,NiMgO2F,6.276317790547958,6.276317790547958,0.0
6263,perov_6263.cif,0.316454907427,0.0018374654734000001,1.38,True,2.273813415321195,VOsN3,5.835027652005107,5.835027652005107,0.0
6264,perov_6264.cif,0.346206536839,0.0036749309468000002,1.38,True,0.0007193613514147048,ZrSiO2F,6.3379645197202885,6.3379645197202885,0.0
6265,perov_6265.cif,0.24186539026299997,0.0036749309468000002,1.42,True,6.685094841261882e-15,SbPdOFN,6.576220600015801,6.576220600015801,0.0
6266,perov_6266.cif,0.29206106593000003,0.0036749309468000002,1.3,False,2.7801462909688927e-15,AsBOFN,6.795117363240329,6.495117363240326,0.3
6267,perov_6267.cif,0.219283014418,0.0018374654734000001,0.74,True,-0.07901764239828911,NaReON2,5.3897746336087815,5.3897746336087815,0.0
6268,perov_6268.cif,0.230711464641,0.0036749309468000002,0.82,True,0.9126010471421288,CdAlOFN,6.049754831100605,6.049754831100605,0.0
6269,perov_6269.cif,0.152978466158,0.0018374654734000001,1.8,True,4.827014704650015,LiCoON2,5.525603903727078,5.525603903727078,0.0
6270,perov_6270.cif,0.149660469411,0.0018374654734000001,0.58,True,0.0,LiCrO2N,5.40563552132595,5.40563552132595,0.0
6271,perov_6271.cif,0.09300149518760001,0.0036749309468000002,3.3,True,0.0,PtCsOFN,5.866997258977075,5.866997258977075,0.0
6272,perov_6272.cif,0.17694766686799998,0.0018374654734000001,1.98,True,-0.6849301216147995,RuAgO2N,6.0693749715431675,6.0693749715431675,0.0
6273,perov_6273.cif,0.146313370758,0.0036749309468000002,0.7,True,0.991973920332118,CdMgO2F,6.2848531590744425,6.2848531590744425,0.0
6274,perov_6274.cif,0.27232170735100003,0.0018374654734000001,0.5,True,0.0007525272633905901,SbVON2,5.866534208724728,5.866534208724728,0.0
6275,perov_6275.cif,0.18483825822799999,0.0018374654734000001,1.98,True,0.03226158823371428,MgInN3,5.370308551349356,5.370308551349356,0.0
6276,perov_6276.cif,0.197587107747,0.0018374654734000001,0.62,False,0.06384565854404656,SbYO3,6.097423131125557,5.517423131125557,0.6
6277,perov_6277.cif,0.133165931107,0.0018374654734000001,2.66,True,0.0,SbKO2N,5.45677810026322,5.45677810026322,0.0
6278,perov_6278.cif,0.146675815705,0.0018374654734000001,1.38,True,2.0699820436742264,CuAlON2,5.643251021500268,5.643251021500268,0.0
6279,perov_6279.cif,0.23866538261700002,0.0018374654734000001,1.18,True,0.03437737608455649,AsRuO3,6.33249218354841,6.33249218354841,0.0
6280,perov_6280.cif,0.103968974715,0.0018374654734000001,1.12,True,1.9870214797563448,LiRhO3,5.6038174073068845,5.6038174073068845,0.0
6281,perov_6281.cif,0.144723168815,0.0036749309468000002,0.76,True,4.0033424474154975,CrInO2F,5.842370074611894,5.842370074611894,0.0
6282,perov_6282.cif,0.234379428731,0.0018374654734000001,2.46,True,1.183902871633567,VLaN3,5.2988610980016775,5.2988610980016775,0.0
6283,perov_6283.cif,0.18682990230000002,0.0036749309468000002,0.62,True,-3.695576618856651e-15,AuHfO2F,6.501209702179025,6.501209702179025,0.0
6284,perov_6284.cif,0.266178887016,0.0018374654734000001,1.36,True,-0.2306050084818463,HfBiO3,5.6937215713005696,5.6937215713005696,0.0
6285,perov_6285.cif,0.251269744937,0.0036749309468000002,0.8,True,6.999941676510312,MoCrO2F,6.116875564809513,6.116875564809513,0.0
6286,perov_6286.cif,0.22453394662300002,0.0018374654734000001,1.96,True,0.7008481108617416,RhBiN3,5.839594649907512,5.839594649907512,0.0
6287,perov_6287.cif,0.39518276979,0.0018374654734000001,0.52,True,2.2241372885681296,LaMnON2,5.371341144482365,5.371341144482365,0.0
6288,perov_6288.cif,0.11041046085100001,0.0018374654734000001,1.0,True,1.999999397773326,CaCaO3,4.603053875657835,4.603053875657835,0.0
6289,perov_6289.cif,0.290745073532,0.0018374654734000001,1.56,True,-0.09267661320972627,WLaN3,5.5158515634497975,5.5158515634497975,0.0
6290,perov_6290.cif,0.160259156742,0.0018374654734000001,1.2,True,2.80452301666382e-05,MgZrON2,5.584692815495505,5.584692815495505,0.0
6291,perov_6291.cif,0.172107154126,0.0018374654734000001,2.58,True,0.4671579384518978,TeCsO3,5.521794979947939,5.521794979947939,0.0
6292,perov_6292.cif,0.314149618759,0.0018374654734000001,0.76,True,0.0013149990056877667,ScVON2,5.444807789914483,5.444807789914483,0.0
6293,perov_6293.cif,0.140412218551,0.0036749309468000002,1.36,True,3.604504211948719,FePbO2F,6.221616867404486,6.221616867404486,0.0
6294,perov_6294.cif,0.073211185853,0.0018374654734000001,0.74,True,0.0,RbYO3,5.019706140897164,5.019706140897164,0.0
6295,perov_6295.cif,0.164811108257,0.0018374654734000001,1.78,True,0.023203891016102304,ScKO2N,5.064507740185252,5.064507740185252,0.0
6296,perov_6296.cif,0.15478307262399998,0.0018374654734000001,1.08,True,1.9999982194325696,CdMgO3,5.890660378060829,5.890660378060829,0.0
6297,perov_6297.cif,0.117096921976,0.0036749309468000002,2.16,True,0.0,NbSrO2F,5.430328892246406,5.430328892246406,0.0
6298,perov_6298.cif,0.22706927073199998,0.0018374654734000001,0.62,False,-0.00010276540544750147,BiGaO2S,6.160961295672642,4.660961295672641,1.5
6299,perov_6299.cif,0.16251456326,0.0018374654734000001,1.68,True,-6.550656914683371e-06,BeAuO2S,6.305948884271787,6.305948884271787,0.0
6300,perov_6300.cif,0.25013452856999996,0.0018374654734000001,1.7,False,3.603567430054965e-05,BFeN3,6.172604767872796,5.472604767872797,0.7
6301,perov_6301.cif,0.195011304091,0.0018374654734000001,1.16,True,-0.00012301653859199123,HgBiO3,6.199825280984638,6.199825280984638,0.0
6302,perov_6302.cif,0.241705371829,0.0018374654734000001,1.44,True,-1.031587097960526,InGaON2,5.239322045013289,5.239322045013289,0.0
6303,perov_6303.cif,0.231701698253,0.0018374654734000001,0.56,True,-0.00046641275691802314,InZrO2N,5.413990484739032,5.413990484739032,0.0
6304,perov_6304.cif,0.196907911212,0.0036749309468000002,0.98,True,3.1226674124877487,GaFeOFN,5.941433295942629,5.941433295942629,0.0
6305,perov_6305.cif,0.40045166261500004,0.0036749309468000002,0.48,True,1.819737722540712e-15,LaGaO2F,5.639485971145106,5.639485971145106,0.0
6306,perov_6306.cif,0.230161629515,0.0018374654734000001,1.8,True,0.589145490934083,YAgON2,5.626100557553091,5.626100557553091,0.0
6307,perov_6307.cif,0.35672234146799997,0.0036749309468000002,1.04,True,-1.3706230838499986e-15,BiSiOFN,6.4483080756657625,6.4483080756657625,0.0
6308,perov_6308.cif,0.203006193655,0.0018374654734000001,1.62,True,0.0017984989613175626,AuBiON2,6.237007791528321,6.237007791528321,0.0
6309,perov_6309.cif,0.180859823376,0.0036749309468000002,1.14,True,2.4232130598622668,CsRhO2F,5.610358978673107,5.610358978673107,0.0
6310,perov_6310.cif,0.329714411721,0.0018374654734000001,1.1,True,2.0018422384480203,TiMnO2N,5.5551690512650165,5.5551690512650165,0.0
6311,perov_6311.cif,0.130965353442,0.0036749309468000002,2.0,True,5.083267479414904,FeAgOFN,6.343629704395653,6.343629704395653,0.0
6312,perov_6312.cif,0.0398558761755,0.0018374654734000001,1.74,True,-1.0294572636311603,LiAgO3,5.639841239720582,5.639841239720582,0.0
6313,perov_6313.cif,0.26914132844599997,0.0018374654734000001,1.24,False,-4.24640234299002e-06,BeSiO3,8.384310462015403,4.224310462015402,4.2
6314,perov_6314.cif,0.15946189974199998,0.0018374654734000001,1.12,True,1.9997143467541092,MgGaO2N,5.4810166563865375,5.4810166563865375,0.0
6315,perov_6315.cif,0.351225842505,0.0018374654734000001,1.04,True,-0.017960537644802557,TaCoO2N,5.919367928230701,5.919367928230701,0.0
6316,perov_6316.cif,0.328922038909,0.0018374654734000001,0.82,True,2.775183336086785,TaCrON2,5.710026435714867,5.710026435714867,0.0
6317,perov_6317.cif,0.246749606246,0.0018374654734000001,1.68,True,2.528170589715115,CrCaON2,5.041570953860775,5.041570953860775,0.0
6318,perov_6318.cif,0.20564960660700002,0.0018374654734000001,1.46,True,0.13974470915332654,IrRuO2S,6.1041728313619315,6.1041728313619315,0.0
6319,perov_6319.cif,0.313580236286,0.0018374654734000001,1.48,True,2.1954074669755883,BiNiN3,5.866506364758129,5.866506364758129,0.0
6320,perov_6320.cif,0.256073503684,0.0036749309468000002,1.5,True,8.800929147226826e-16,HfAsOFN,6.346906098373148,6.346906098373148,0.0
6321,perov_6321.cif,0.28800727590799996,0.0018374654734000001,0.46,True,3.1072215172400734e-05,GaReO3,5.594172524597181,5.594172524597181,0.0
6322,perov_6322.cif,0.173962783097,0.0036749309468000002,0.38,False,2.4985411545349325e-15,NaTaOFN,6.666768324360259,4.96676832436026,1.7
6323,perov_6323.cif,0.176753838477,0.0018374654734000001,1.28,True,2.8559844867613284,VBiO2S,5.539938351831231,5.539938351831231,0.0
6324,perov_6324.cif,0.23997960562800003,0.0036749309468000002,2.0,True,-9.227248455915041e-17,BBOFN,6.369992781448237,6.369992781448237,0.0
6325,perov_6325.cif,0.24808495078099999,0.0036749309468000002,0.28,True,3.5417270490274007,InMnO2F,5.842370074611894,5.842370074611894,0.0
6326,perov_6326.cif,0.276792352416,0.0018374654734000001,1.4,True,-0.00020224586602068942,AgOsN3,6.084977999563752,6.084977999563752,0.0
6327,perov_6327.cif,0.252422515007,0.0018374654734000001,2.32,True,0.004996749240206099,RuLiN3,5.537024541111668,5.537024541111668,0.0
6328,perov_6328.cif,0.29769472566,0.0036749309468000002,0.74,True,2.8833239151866725,TiZrO2F,5.942815290888162,5.942815290888162,0.0
6329,perov_6329.cif,0.23128546814399997,0.0036749309468000002,1.86,True,2.001845469192864,WMgOFN,6.2323640267973826,6.2323640267973826,0.0
6330,perov_6330.cif,0.0999310954225,0.0018374654734000001,1.32,True,1.22427817842361,TlPbO2S,5.961841922345117,5.961841922345117,0.0
6331,perov_6331.cif,0.225867482964,0.0036749309468000002,0.88,True,1.3896890739239086e-11,GaGeOFN,6.09168706701775,6.09168706701775,0.0
6332,perov_6332.cif,0.134979817149,0.0018374654734000001,1.9,True,1.0022910170337962,AsYO2N,5.870001107462289,5.870001107462289,0.0
6333,perov_6333.cif,0.211369311278,0.0018374654734000001,1.4,True,0.8494830066203178,SbPbON2,5.958144442768588,5.958144442768588,0.0
6334,perov_6334.cif,0.313098030124,0.0036749309468000002,1.3,True,3.9972317429785167,WAlO2F,6.084146714181796,6.084146714181796,0.0
6335,perov_6335.cif,0.12289263134600001,0.0018374654734000001,2.26,True,1.1501930369623492,TlCsO2N,5.483125224826033,5.483125224826033,0.0
6336,perov_6336.cif,0.23098973958299998,0.0018374654734000001,2.46,True,1.8398712399176875,TePbN3,6.064919427990312,6.064919427990312,0.0
6337,perov_6337.cif,0.259581896127,0.0018374654734000001,1.74,True,0.009841849668296376,NbCdN3,5.842697342719611,5.842697342719611,0.0
6338,perov_6338.cif,0.165264363381,0.0018374654734000001,1.52,True,-0.2781611841878817,TlCdO3,6.3572925879664925,6.3572925879664925,0.0
6339,perov_6339.cif,0.21669372693000002,0.0018374654734000001,1.0,True,-5.625109903878934e-05,AsInO2S,5.657226669917174,5.657226669917174,0.0
6340,perov_6340.cif,0.10811589886,0.0018374654734000001,3.16,True,0.0,KBaN3,4.778710029923429,4.778710029923429,0.0
6341,perov_6341.cif,0.133890387868,0.0036749309468000002,1.3,True,4.397192059638834e-15,SiYO2F,6.172877571156622,6.172877571156622,0.0
6342,perov_6342.cif,0.1345370751,0.0018374654734000001,1.12,True,0.28913474095438113,PbSrO2S,4.87160409449471,4.87160409449471,0.0
6343,perov_6343.cif,0.25636364170299997,0.0018374654734000001,1.82,True,3.3320487541172272,CrBaON2,5.244550919740535,5.244550919740535,0.0
6344,perov_6344.cif,0.286259806745,0.0018374654734000001,1.08,True,0.1570221885561018,ScTiN3,5.3608512755295985,5.3608512755295985,0.0
6345,perov_6345.cif,0.20441761884399998,0.0018374654734000001,0.6,True,-0.004469713926906415,CuMoO2N,5.908719817124402,5.908719817124402,0.0
6346,perov_6346.cif,0.342481189687,0.0018374654734000001,1.26,True,0.021141879730198092,TaSbON2,6.021128262093872,6.021128262093872,0.0
6347,perov_6347.cif,0.266417956693,0.0036749309468000002,0.32,True,-3.0828854737221123e-15,BaAsO2F,6.091023416357999,6.091023416357999,0.0
6348,perov_6348.cif,0.23191021992199998,0.0018374654734000001,1.6,True,0.5254269731822596,IrBeO2S,6.2090268062351575,6.2090268062351575,0.0
6349,perov_6349.cif,0.286608332664,0.0018374654734000001,-0.14,True,0.9344128758870768,CaVO3,5.079512367088364,5.079512367088364,0.0
6350,perov_6350.cif,0.201365913557,0.0018374654734000001,1.76,True,1.3292002683634716,VAuON2,6.0739109773956645,6.0739109773956645,0.0
6351,perov_6351.cif,0.29422149077,0.0018374654734000001,1.54,True,0.026474247043331903,ScPdO3,5.761005386365764,5.761005386365764,0.0
6352,perov_6352.cif,0.124083926273,0.0036749309468000002,1.08,True,1.9979771317665644,KGaOFN,5.357338553238359,5.357338553238359,0.0
6353,perov_6353.cif,0.409808852073,0.0018374654734000001,1.16,True,0.11600856157622275,ZrNiO2N,5.806784176161988,5.806784176161988,0.0
6354,perov_6354.cif,0.176809216569,0.0018374654734000001,2.1,True,-0.3944288639667277,HgLaON2,5.7478873599619495,5.7478873599619495,0.0
6355,perov_6355.cif,0.227867563608,0.0036749309468000002,1.82,True,2.291248845186093,SiCoOFN,6.5068546409212455,6.5068546409212455,0.0
6356,perov_6356.cif,0.279099350959,0.0018374654734000001,0.2,True,0.016792955789762587,CsWO2N,5.245709434938197,5.245709434938197,0.0