,id,fermi level,fermi width,e_form,gap is direct,mu_b,formula,vbm,cbm,gap gllbsc
4293,perov_4293.cif,0.302453371862,0.0018374654734000001,1.2,True,0.013156179390101387,BaRhON2,5.3987523923605725,5.3987523923605725,0.0
4294,perov_4294.cif,0.163652579614,0.0036749309468000002,1.94,True,4.050171218301363,MnAuOFN,6.569007745167585,6.569007745167585,0.0
4295,perov_4295.cif,0.244364158416,0.0018374654734000001,0.54,True,0.0,PbTiO2N,5.605038653583188,5.605038653583188,0.0
4296,perov_4296.cif,0.0448714998667,0.0036749309468000002,2.22,True,0.0,RhBaO2F,5.841559253669603,5.841559253669603,0.0
4297,perov_4297.cif,0.13021082085000002,0.0018374654734000001,1.72,True,2.4037161839874703,CuZnO3,6.109484829114021,6.109484829114021,0.0
4298,perov_4298.cif,0.09407532944939999,0.0018374654734000001,2.8,True,3.9339928292871735,NaHgN3,5.64187836871941,5.64187836871941,0.0
4299,perov_4299.cif,0.253597812019,0.0018374654734000001,0.98,True,4.797440798277531,MnMnN3,5.5608070034824575,5.5608070034824575,0.0
4300,perov_4300.cif,0.118099527437,0.0036749309468000002,1.56,True,2.0174326590485805,AgAuOFN,6.805621314560839,6.805621314560839,0.0
4301,perov_4301.cif,0.211908934685,0.0036749309468000002,0.82,True,2.2597797273820786,TlMnOFN,6.503978248791193,6.503978248791193,0.0
4302,perov_4302.cif,0.0302455045798,0.0036749309468000002,1.88,True,0.0,NiCaO2F,5.641352115157673,5.641352115157673,0.0
4303,perov_4303.cif,0.260945338618,0.0018374654734000001,0.64,False,-0.00010270052840033438,YGaO2S,6.24356461205744,4.043564612057439,2.2
4304,perov_4304.cif,0.164786449679,0.0018374654734000001,1.92,True,0.9446717957167968,SnBaO2N,5.4368271078587975,5.4368271078587975,0.0
4305,perov_4305.cif,0.227347637601,0.0018374654734000001,1.66,True,0.2706570646232969,SiOsO2S,6.065396967391925,6.065396967391925,0.0
4306,perov_4306.cif,0.402891514938,0.0018374654734000001,1.56,True,0.0017428602923423848,HfOsON2,5.812800357209199,5.812800357209199,0.0
4307,perov_4307.cif,0.053527438318099994,0.0036749309468000002,1.98,True,0.0,RhCaO2F,5.615473261534149,5.615473261534149,0.0
4308,perov_4308.cif,0.125014786352,0.0018374654734000001,1.76,True,0.5083756121194334,ZnCdO3,6.095786294748608,6.095786294748608,0.0
4309,perov_4309.cif,0.109367773857,0.0018374654734000001,3.28,True,-2.6659808440254626,PtRbO3,5.61165801238297,5.61165801238297,0.0
4310,perov_4310.cif,0.219531747409,0.0036749309468000002,0.92,True,3.525574078670953,VSnO2F,6.196726488442483,6.196726488442483,0.0
4311,perov_4311.cif,0.20908785023899998,0.0036749309468000002,0.68,True,0.0,AlTiO2F,5.795260491657477,5.795260491657477,0.0
4312,perov_4312.cif,0.272472627951,0.0036749309468000002,1.52,True,0.0,IrCrO2F,6.513658353877363,6.513658353877363,0.0
4313,perov_4313.cif,0.196756130163,0.0018374654734000001,0.88,True,1.6612836876291477,RuZrO2S,5.653779240987972,5.653779240987972,0.0
4314,perov_4314.cif,0.474404684106,0.0018374654734000001,-0.02,True,0.0036258892725449243,LaReN3,5.414407138775215,5.414407138775215,0.0
4315,perov_4315.cif,0.3235076379,0.0018374654734000001,1.02,True,3.678150668805936,MoMnN3,5.613608949519507,5.613608949519507,0.0
4316,perov_4316.cif,0.264820441026,0.0018374654734000001,0.86,True,0.3870836716536345,CaOsO2S,5.197833638727412,5.197833638727412,0.0
4317,perov_4317.cif,0.28109454531399997,0.0018374654734000001,1.82,True,2.91041038496342,CaPtN3,5.4272049420787205,5.4272049420787205,0.0
4318,perov_4318.cif,0.23037238654599998,0.0018374654734000001,1.92,True,-1.239578167491162,RbMnN3,5.0684177825915295,5.0684177825915295,0.0
4319,perov_4319.cif,0.243528417588,0.0018374654734000001,1.16,True,-0.3523818458995949,CdSbON2,6.115075909896167,6.115075909896167,0.0
4320,perov_4320.cif,0.314798692233,0.0036749309468000002,1.02,True,1.6954163858418705,ScTaO2F,6.0466412306367525,6.0466412306367525,0.0
4321,perov_4321.cif,0.20724989785599998,0.0036749309468000002,0.84,True,-0.015403663295913519,PbCuO2F,6.345321908385618,6.345321908385618,0.0
4322,perov_4322.cif,0.199759102113,0.0036749309468000002,1.14,True,0.05656295732362082,CuSbOFN,6.585063600060088,6.585063600060088,0.0
4323,perov_4323.cif,0.130248548515,0.0036749309468000002,3.42,True,0.0,TiCsOFN,5.330999788522077,5.330999788522077,0.0
4324,perov_4324.cif,0.19621187012699998,0.0018374654734000001,1.12,True,1.1490035015407754,HgHfO2N,5.930753161751659,5.930753161751659,0.0
4325,perov_4325.cif,0.229365821347,0.0018374654734000001,1.62,True,0.7328909622935581,AuBO2S,6.14048519342175,6.14048519342175,0.0
4326,perov_4326.cif,0.147366007929,0.0018374654734000001,2.72,True,2.80183696060894,KBeN3,5.391665438797957,5.391665438797957,0.0
4327,perov_4327.cif,0.129933223859,0.0018374654734000001,1.7,True,2.999999468517601,SnCaO2N,5.226405472577597,5.226405472577597,0.0
4328,perov_4328.cif,0.0311134075867,0.0036749309468000002,2.08,True,0.0,NiBaO2F,5.86848002237745,5.86848002237745,0.0
4329,perov_4329.cif,0.0793113881492,0.0036749309468000002,2.2,True,-2.361243246035316,AuLiOFN,6.296576512946374,6.296576512946374,0.0
4330,perov_4330.cif,0.184097757144,0.0018374654734000001,1.56,True,3.9029655370691287,CsCoO2S,5.061259226749608,5.061259226749608,0.0
4331,perov_4331.cif,0.303333604162,0.0036749309468000002,1.26,True,6.630082599418771e-15,SbSiO2F,6.712400709794525,6.712400709794525,0.0
4332,perov_4332.cif,0.19281461509300002,0.0018374654734000001,0.94,True,0.3880347548948464,TeLaO2S,5.667505169085604,5.667505169085604,0.0
4333,perov_4333.cif,0.324458729808,0.0036749309468000002,1.86,True,2.660829699860481e-14,ZrPdOFN,6.2093809113535,6.2093809113535,0.0
4334,perov_4334.cif,0.28520935097600003,0.0018374654734000001,1.36,True,-4.320649705887748,ReTaO2N,5.837279901471923,5.837279901471923,0.0
4335,perov_4335.cif,0.0853346647721,0.0036749309468000002,2.5,True,3.0027474209515717,WBaO2F,5.86848002237745,5.86848002237745,0.0
4336,perov_4336.cif,0.187224422554,0.0018374654734000001,2.32,True,0.0,ScBaO3,5.2053895740715435,5.2053895740715435,0.0
4337,perov_4337.cif,0.098527752355,0.0018374654734000001,2.5,True,2.9999881654306986,BeMgO2N,5.968570694320682,5.968570694320682,0.0
4338,perov_4338.cif,0.148575350187,0.0018374654734000001,2.14,True,-0.20837720073140226,SbSrO2N,5.252659144749842,5.252659144749842,0.0
4339,perov_4339.cif,0.127273425344,0.0036749309468000002,1.68,True,2.6790070383752784,AuZnOFN,6.808684151676397,6.808684151676397,0.0
4340,perov_4340.cif,0.294440829287,0.0018374654734000001,0.36,True,0.005782368682670124,CaWON2,5.2137215262729,5.2137215262729,0.0
4341,perov_4341.cif,0.193890547711,0.0018374654734000001,0.88,True,2.5121029498614136,GaMnO2S,5.304136000597293,5.304136000597293,0.0
4342,perov_4342.cif,0.22593536665800001,0.0018374654734000001,2.16,True,-5.845950220972901e-05,RhSrN3,5.056154507322863,5.056154507322863,0.0
4343,perov_4343.cif,0.189078487453,0.0018374654734000001,1.42,True,0.5272919403954361,HfSrO3,4.92985176404817,4.92985176404817,0.0
4344,perov_4344.cif,0.196059732476,0.0018374654734000001,2.98,True,0.002275064737801786,PbCsON2,5.082197085683759,5.082197085683759,0.0
4345,perov_4345.cif,0.25394710407,0.0018374654734000001,1.46,True,2.044991514543112,CrAlON2,5.437288211602636,5.437288211602636,0.0
4346,perov_4346.cif,0.0815723043289,0.0018374654734000001,2.1,True,-5.99669035706153e-05,LiCsO3,4.896425012763628,4.896425012763628,0.0
4347,perov_4347.cif,0.28614152684300004,0.0036749309468000002,0.22,True,3.7849523984809483e-16,BaSnO2F,5.841559253669603,5.841559253669603,0.0
4348,perov_4348.cif,0.09286521580589999,0.0036749309468000002,1.0,True,0.9677334992129438,CuInO2F,6.063677261246061,6.063677261246061,0.0
4349,perov_4349.cif,0.175445199881,0.0018374654734000001,1.4,True,1.8704115521023537,AuRhO2S,6.143345225027252,6.143345225027252,0.0
4350,perov_4350.cif,0.115563698466,0.0018374654734000001,2.64,True,4.260979493153236,AgMgN3,5.770367778206494,5.770367778206494,0.0
4351,perov_4351.cif,0.264567518811,0.0036749309468000002,1.26,True,4.269077935418818e-16,BiPdOFN,6.3620399204481926,6.3620399204481926,0.0
4352,perov_4352.cif,0.0437760630764,0.0018374654734000001,1.8,True,3.1089289790999866,HgSrO3,5.36805658926364,5.36805658926364,0.0
4353,perov_4353.cif,0.26377408210299996,0.0036749309468000002,1.22,True,4.672532935538123e-16,LaHgOFN,6.175775674032764,6.175775674032764,0.0
4354,perov_4354.cif,0.132834472122,0.0036749309468000002,2.04,True,3.001386614570833,WCaO2F,5.641352115157673,5.641352115157673,0.0
4355,perov_4355.cif,0.16409738572899998,0.0018374654734000001,1.88,True,0.7004611552505828,SbBaO3,5.608571906357299,5.608571906357299,0.0
4356,perov_4356.cif,0.0132053192094,0.0018374654734000001,3.38,True,5.999999999933968,NaKON2,4.871972236805704,4.871972236805704,0.0
4357,perov_4357.cif,0.129058517936,0.0018374654734000001,0.42,True,0.9994314285831984,NaVO2N,5.3119544806481835,5.3119544806481835,0.0
4358,perov_4358.cif,0.245541493112,0.0018374654734000001,0.66,True,1.0691038644456723,PtTaO3,6.277761265993383,6.277761265993383,0.0
4359,perov_4359.cif,0.233423933325,0.0018374654734000001,1.58,True,-0.01809437965940733,IrBiO2N,6.18445577787186,6.18445577787186,0.0
4360,perov_4360.cif,0.26553281949900004,0.0018374654734000001,1.62,True,0.0,VRuO2N,5.820065543684971,5.820065543684971,0.0
4361,perov_4361.cif,0.280501455997,0.0018374654734000001,1.44,True,-0.00024114779120011735,IrTiN3,5.888337806038441,5.888337806038441,0.0
4362,perov_4362.cif,0.20938538403700002,0.0018374654734000001,1.2,True,1.7269348670711668,VRhON2,5.726996937207677,5.726996937207677,0.0
4363,perov_4363.cif,0.27307647652,0.0018374654734000001,1.3,True,0.004324550432912133,TeRhO3,6.3195353237416745,6.3195353237416745,0.0
4364,perov_4364.cif,0.270809356341,0.0018374654734000001,2.46,True,-3.5399502742552498,IrPdO3,6.32786549632034,6.32786549632034,0.0
4365,perov_4365.cif,0.24163005349,0.0036749309468000002,1.5,True,0.386758061806816,AsBeOFN,6.824179051432546,6.824179051432546,0.0
4366,perov_4366.cif,0.180519090794,0.0018374654734000001,0.86,True,0.9851622944125752,SnYO2S,5.456672577654557,5.456672577654557,0.0
4367,perov_4367.cif,0.191301903277,0.0036749309468000002,0.76,True,0.7846202178475573,ZnVOFN,6.1956735349805845,6.1956735349805845,0.0
4368,perov_4368.cif,0.0114815787334,0.0036749309468000002,2.72,True,0.0,FeNaO2F,5.846316394899343,5.846316394899343,0.0
4369,perov_4369.cif,0.30115630290199996,0.0018374654734000001,0.26,True,0.002433122962434692,LaYO3,7.8774635731451,2.6874635731451,5.2
4370,perov_4370.cif,0.0754281866146,0.0018374654734000001,1.52,True,-2.5441715313551204e-08,NaCdO2S,5.366928192960239,5.366928192960239,0.0
4371,perov_4371.cif,0.20488106698199998,0.0018374654734000001,1.92,True,-3.1287507667318625e-05,CuCaON2,5.232544115397376,5.232544115397376,0.0
4372,perov_4372.cif,0.09705830884860002,0.0036749309468000002,1.64,True,-0.990288380895766,CdCaOFN,5.609463219067759,5.609463219067759,0.0
4373,perov_4373.cif,0.161358468543,0.0036749309468000002,1.58,True,-0.6867609760595782,MgCuOFN,6.2548641213573655,6.2548641213573655,0.0
4374,perov_4374.cif,0.209672069272,0.0018374654734000001,2.88,True,1.9122914026248048,AsTlN3,6.451939544270274,6.451939544270274,0.0
4375,perov_4375.cif,0.210106877423,0.0036749309468000002,1.22,True,0.686816993267822,KIrOFN,5.9350905317758365,5.9350905317758365,0.0
4376,perov_4376.cif,0.0910722197464,0.0018374654734000001,2.62,True,4.074115897708492,LiPbN3,5.3780379922558845,5.3780379922558845,0.0
4377,perov_4377.cif,0.238141341534,0.0018374654734000001,1.24,True,0.0050092172420797,OsScON2,5.788737081045612,5.788737081045612,0.0
4378,perov_4378.cif,0.18031895327999997,0.0036749309468000002,1.02,True,1.9999966210399085,TiYO2F,5.788020918152621,5.788020918152621,0.0
4379,perov_4379.cif,0.221972322586,0.0018374654734000001,0.96,True,1.7412837056696176e-05,BaHgO3,5.691648155016514,5.691648155016514,0.0
4380,perov_4380.cif,0.264627659926,0.0036749309468000002,1.0,True,4.17518924146778e-15,ScScOFN,5.8630794927062135,5.663079492706214,0.2
4381,perov_4381.cif,0.285810745736,0.0018374654734000001,1.02,True,0.0006853791123617726,ZnReN3,5.850884476775918,5.850884476775918,0.0
4382,perov_4382.cif,0.20672956631499997,0.0018374654734000001,1.52,True,-0.0015013111371059815,SrScON2,4.840921632264059,4.840921632264059,0.0
4383,perov_4383.cif,0.189670412678,0.0018374654734000001,1.26,True,-0.00022335530816992418,CaAuO3,5.582088074327045,5.582088074327045,0.0
4384,perov_4384.cif,0.308009913785,0.0018374654734000001,0.78,True,0.01883566616021781,LaCdO3,5.641039224367348,5.641039224367348,0.0
4385,perov_4385.cif,0.104213232069,0.0018374654734000001,1.14,True,0.9993776065859876,LiSnO2S,5.3936536820632135,5.3936536820632135,0.0
4386,perov_4386.cif,0.106249444453,0.0018374654734000001,2.98,True,-0.1988279216561082,CuBaON2,5.4432129001328855,5.4432129001328855,0.0
4387,perov_4387.cif,0.20588178983600003,0.0018374654734000001,1.62,True,0.0013806064725585547,TeAgO3,6.360160109470431,6.360160109470431,0.0
4388,perov_4388.cif,0.170731391619,0.0036749309468000002,2.24,True,0.0,VTlOFN,6.461464942647988,6.461464942647988,0.0
4389,perov_4389.cif,0.205526597554,0.0018374654734000001,1.74,True,0.11207280479290738,PdGaN3,5.592714430302227,5.592714430302227,0.0
4390,perov_4390.cif,0.08473900124539999,0.0036749309468000002,1.9,True,0.0,CdBaOFN,5.835307239360326,5.835307239360326,0.0
4391,perov_4391.cif,0.274073337686,0.0018374654734000001,0.08,True,0.018421754117586172,KReO2N,5.253113935440499,5.253113935440499,0.0
4392,perov_4392.cif,0.286086583115,0.0018374654734000001,0.68,True,0.7317940724875597,SrWO2S,4.993126878002552,4.993126878002552,0.0
4393,perov_4393.cif,0.30557109610399996,0.0018374654734000001,1.0,True,1.2481802941644131,CdOsO3,6.211829155635378,6.211829155635378,0.0
4394,perov_4394.cif,0.23192124674000003,0.0018374654734000001,1.32,True,0.28092906385449345,WInON2,5.583874305594372,5.583874305594372,0.0
4395,perov_4395.cif,0.113012699575,0.0018374654734000001,1.44,True,-0.003871498023102896,TlNaO2S,5.6022115982440885,5.6022115982440885,0.0
4396,perov_4396.cif,0.301703533584,0.0018374654734000001,2.0,True,0.0032039354598225604,IrCuN3,6.204181590590626,6.204181590590626,0.0
4397,perov_4397.cif,0.278824830378,0.0018374654734000001,1.74,True,0.003995271128090394,ZrAgON2,5.7765645449969165,5.7765645449969165,0.0
4398,perov_4398.cif,0.138284592049,0.0018374654734000001,2.88,True,-0.000552647286846863,SbNaON2,5.598737158089904,5.598737158089904,0.0
4399,perov_4399.cif,0.19498760683400002,0.0018374654734000001,2.0,True,0.9360825605800648,BePtON2,6.414798435681738,6.414798435681738,0.0
4400,perov_4400.cif,0.323258253141,0.0036749309468000002,1.14,True,-2.3821135214884753e-15,TeBeO2F,6.920888001948105,6.920888001948105,0.0
4401,perov_4401.cif,0.14688737028100002,0.0018374654734000001,1.0,True,0.8508847869550814,CsHfO2S,4.831875840780646,4.831875840780646,0.0
4402,perov_4402.cif,0.424595031524,0.0036749309468000002,0.52,True,0.66966538364467,LaTiOFN,5.684879072696845,5.684879072696845,0.0
4403,perov_4403.cif,0.255290621379,0.0018374654734000001,1.14,True,0.0013442710899447265,PdCrN3,5.763698260668777,5.763698260668777,0.0
4404,perov_4404.cif,0.268270313717,0.0018374654734000001,1.22,True,0.0783504758614306,HgCrON2,5.992602183123819,5.992602183123819,0.0
4405,perov_4405.cif,0.251766377962,0.0018374654734000001,1.44,True,3.1304318853626967,HgCoO2N,6.212303492599758,6.212303492599758,0.0
4406,perov_4406.cif,0.262158000833,0.0018374654734000001,0.26,True,-0.002727873722146349,InTaO2N,5.5443926964610455,5.5443926964610455,0.0
4407,perov_4407.cif,0.388046826259,0.0036749309468000002,1.22,True,-0.001898527895235991,LaIrO2F,6.247665600896884,6.247665600896884,0.0
4408,perov_4408.cif,0.154027006221,0.0018374654734000001,1.46,True,0.6309706349217112,BeRhO2S,5.945781899144246,5.945781899144246,0.0
4409,perov_4409.cif,0.0974101597084,0.0018374654734000001,3.66,True,0.0002767315026622251,HgRbON2,5.461979070649363,5.461979070649363,0.0
4410,perov_4410.cif,0.27195877019299997,0.0018374654734000001,2.78,True,0.31288603919923474,OsCsON2,5.320143594536766,5.320143594536766,0.0
4411,perov_4411.cif,0.254495761046,0.0036749309468000002,0.88,True,2.467557780036205,SnCoOFN,6.37592802039514,6.37592802039514,0.0
4412,perov_4412.cif,0.221128073516,0.0018374654734000001,0.18,True,3.999999834791239,CrZrO3,5.654651580768899,5.654651580768899,0.0
4413,perov_4413.cif,0.125348902081,0.0018374654734000001,1.58,True,1.3972067408623374,KPdO2S,5.19889615591324,5.19889615591324,0.0
4414,perov_4414.cif,0.33551742369800003,0.0018374654734000001,0.88,True,-2.4993835303632754e-06,HfTaN3,5.772220499607152,5.372220499607152,0.4
4415,perov_4415.cif,0.248635799932,0.0018374654734000001,0.48,True,2.0000008468915635,RhTaO3,5.961114286169919,5.961114286169919,0.0
4416,perov_4416.cif,0.138631042468,0.0018374654734000001,1.5,True,1.7126375201532225,KCuO2N,5.370856496475398,5.370856496475398,0.0
4417,perov_4417.cif,0.2712777327,0.0018374654734000001,1.3,True,0.4541892619673291,MgIrO2N,6.0721064645357785,6.0721064645357785,0.0
4418,perov_4418.cif,0.255913405771,0.0018374654734000001,0.62,True,-3.9991974399859713,CrMoO2N,5.693068141911622,5.693068141911622,0.0
4419,perov_4419.cif,0.128514542754,0.0018374654734000001,3.82,True,0.0,IrKO2N,5.562835240670066,5.562835240670066,0.0
4420,perov_4420.cif,0.260531956555,0.0018374654734000001,0.96,True,0.0,IrVON2,5.9805553088765295,5.9805553088765295,0.0
4421,perov_4421.cif,0.146090680281,0.0036749309468000002,0.78,True,0.9967190365778008,NaZrOFN,5.6799599314310765,5.6799599314310765,0.0
4422,perov_4422.cif,0.117484136081,0.0036749309468000002,2.32,True,1.2889754478967923,BeZnOFN,6.589724246833002,6.589724246833002,0.0
4423,perov_4423.cif,0.13252036959799998,0.0018374654734000001,1.94,True,3.9939739156184313,AuMgO2N,6.166891234350505,6.166891234350505,0.0
4424,perov_4424.cif,0.209759788055,0.0018374654734000001,0.26,True,0.9997868373520512,CsZrO3,5.086113943862875,5.086113943862875,0.0
4425,perov_4425.cif,0.09634992042780001,0.0036749309468000002,1.6,True,2.169210783356906,PdAgO2F,6.506639309169053,6.506639309169053,0.0
4426,perov_4426.cif,0.285474410894,0.0036749309468000002,0.8,True,2.8715521487180173,TiTaO2F,6.085954858637991,6.085954858637991,0.0
4427,perov_4427.cif,0.24192038609400002,0.0036749309468000002,1.32,True,-6.572630890505665e-07,TeRuO2F,6.804012581805298,6.804012581805298,0.0
4428,perov_4428.cif,0.262798020863,0.0018374654734000001,2.2,True,0.07832486886086798,PtSrN3,5.324731148770422,5.324731148770422,0.0
4429,perov_4429.cif,0.296597232591,0.0018374654734000001,2.0,True,4.62675007594468,FeTeN3,6.117025939155848,6.117025939155848,0.0
4430,perov_4430.cif,0.327266222065,0.0018374654734000001,0.96,True,1.0016949515920712,YNiO2N,5.655533048512463,5.655533048512463,0.0
4431,perov_4431.cif,0.252922165225,0.0018374654734000001,1.46,True,-0.4492369223067339,HgSbON2,6.3190997054946125,6.3190997054946125,0.0
4432,perov_4432.cif,0.17253201592099998,0.0018374654734000001,1.2,True,2.9986595602139015,RuInO3,5.6884222600278225,5.6884222600278225,0.0
4433,perov_4433.cif,0.195270178653,0.0036749309468000002,0.18,False,-4.681577575299268e-15,KTiO2F,7.076902738604579,3.876902738604578,3.2
4434,perov_4434.cif,0.150487964161,0.0036749309468000002,3.4,True,0.0,ScCsOFN,5.296562966786015,5.296562966786015,0.0
4435,perov_4435.cif,0.227431725962,0.0018374654734000001,1.16,False,6.908578992259608e-05,AlRuN3,6.058725116290883,5.158725116290881,0.9
4436,perov_4436.cif,0.221316943528,0.0018374654734000001,1.64,True,0.19875005527871534,PdScN3,5.6408161109257575,5.6408161109257575,0.0
4437,perov_4437.cif,0.210212123763,0.0018374654734000001,0.88,True,1.000208372799143,CdHfO2N,5.739267850993558,5.739267850993558,0.0
4438,perov_4438.cif,0.21850363842099998,0.0018374654734000001,3.22,True,-0.0020918721123749638,SrCsON2,4.44905302365056,4.44905302365056,0.0
4439,perov_4439.cif,0.18576382852099999,0.0018374654734000001,2.22,True,0.13881508005275126,AsTlO2N,6.5432650908412295,6.5432650908412295,0.0
4440,perov_4440.cif,0.289848768197,0.0036749309468000002,1.18,True,2.621221225971283e-15,MgReOFN,6.117741909833523,6.117741909833523,0.0