,id,fermi level,fermi width,e_form,gap is direct,mu_b,formula,vbm,cbm,gap gllbsc
4441,perov_4441.cif,0.223114990902,0.0018374654734000001,1.16,True,1.9716874584261244,HgTaN3,6.067524218047426,6.067524218047426,0.0
4442,perov_4442.cif,0.122717669729,0.0018374654734000001,1.3,True,1.75263752965121,KCuO3,5.4087344760942555,5.4087344760942555,0.0
4443,perov_4443.cif,0.248193268469,0.0018374654734000001,1.46,True,0.7191922673630381,TaLaON2,5.4768509191753765,5.4768509191753765,0.0
4444,perov_4444.cif,0.223596233532,0.0018374654734000001,1.42,True,-0.33869030559966057,PbScON2,5.529832456644645,5.529832456644645,0.0
4445,perov_4445.cif,0.234387866452,0.0018374654734000001,0.48,True,-0.6407505043519791,CrMnO3,5.679291519103477,5.679291519103477,0.0
4446,perov_4446.cif,0.211449190714,0.0036749309468000002,1.56,True,0.0,IrInOFN,6.2364380625442095,6.2364380625442095,0.0
4447,perov_4447.cif,0.320744402032,0.0036749309468000002,1.86,True,1.5157812180053192,HfSnOFN,6.086961995836886,6.086961995836886,0.0
4448,perov_4448.cif,0.19775195596099998,0.0018374654734000001,1.32,True,2.271446822338911,VPtO2S,5.887183959314827,5.887183959314827,0.0
4449,perov_4449.cif,0.230415967712,0.0018374654734000001,0.96,True,0.000400038017470905,AlVO3,5.478207679118199,5.478207679118199,0.0
4450,perov_4450.cif,0.101978143091,0.0036749309468000002,1.02,True,0.0,CaLiO2F,5.228847450694854,5.228847450694854,0.0
4451,perov_4451.cif,0.188111956759,0.0018374654734000001,2.56,True,4.072604938219516,ReAgO2S,5.748857397744912,5.748857397744912,0.0
4452,perov_4452.cif,0.28713189188,0.0018374654734000001,1.66,True,1.0640714827551694,TaLaN3,5.438495912397183,5.438495912397183,0.0
4453,perov_4453.cif,0.17118253193500002,0.0018374654734000001,0.44,False,-6.669227789147611e-06,LiSbO3,6.685353431276997,4.795353431276998,1.9
4454,perov_4454.cif,0.109939069588,0.0018374654734000001,1.52,True,2.999995629919045,MgLiO3,5.452510849079349,5.452510849079349,0.0
4455,perov_4455.cif,0.127907013587,0.0036749309468000002,1.68,True,2.192055412760912,PdPbOFN,6.2924235209867705,6.2924235209867705,0.0
4456,perov_4456.cif,0.155772843976,0.0018374654734000001,1.56,True,0.2722441674845921,BeAlO3,5.826626882203062,5.826626882203062,0.0
4457,perov_4457.cif,0.224861669884,0.0018374654734000001,1.84,True,0.9422685868144356,AuPtON2,6.627945997317791,6.627945997317791,0.0
4458,perov_4458.cif,0.279871476959,0.0018374654734000001,1.36,True,-0.7597645216220392,VBeO2N,5.920039286751798,5.920039286751798,0.0
4459,perov_4459.cif,0.061451080642099996,0.0036749309468000002,1.38,True,0.0,KHgO2F,5.949840316668651,5.949840316668651,0.0
4460,perov_4460.cif,0.277900586237,0.0018374654734000001,0.9,True,-1.2231561090275431,NbWO2S,5.735596631053013,5.735596631053013,0.0
4461,perov_4461.cif,0.316945595267,0.0018374654734000001,2.4,True,0.008657449402520001,ZrHgN3,5.924818132633363,5.924818132633363,0.0
4462,perov_4462.cif,0.15933022607,0.0018374654734000001,0.72,True,-0.0028733521904748685,MgTaON2,5.719206589943664,5.719206589943664,0.0
4463,perov_4463.cif,0.263522445866,0.0018374654734000001,0.62,True,2.0000704174926858,CsMnO3,5.1082765001493895,5.1082765001493895,0.0
4464,perov_4464.cif,0.102181382363,0.0018374654734000001,1.68,True,1.6113919859405357,LiLaO2N,5.184890158918256,5.184890158918256,0.0
4465,perov_4465.cif,0.21593128904300002,0.0036749309468000002,1.36,True,0.9205645408096412,AsRuOFN,6.708936788656236,6.708936788656236,0.0
4466,perov_4466.cif,0.28844518563,0.0018374654734000001,1.48,True,-0.006213982245686353,RuNiON2,6.015971880518233,6.015971880518233,0.0
4467,perov_4467.cif,0.16639253569499998,0.0018374654734000001,3.02,True,6.165290068482388,CoTlN3,6.187693688343173,6.187693688343173,0.0
4468,perov_4468.cif,0.156121609512,0.0018374654734000001,0.44,True,0.19767855777357116,CuNbO2N,5.9387148606637465,5.9387148606637465,0.0
4469,perov_4469.cif,0.335741871536,0.0018374654734000001,2.58,True,1.4077280111640034,ReZnN3,5.850884476775918,5.850884476775918,0.0
4470,perov_4470.cif,0.137444581852,0.0036749309468000002,1.52,True,0.0,CsAuO2F,5.950207650068661,5.950207650068661,0.0
4471,perov_4471.cif,0.150678029629,0.0018374654734000001,0.16,True,0.9936959665860171,KTiO3,5.1333854809651704,5.1333854809651704,0.0
4472,perov_4472.cif,0.102342670079,0.0036749309468000002,2.24,True,-1.520517273013878,SiLiO2F,6.101587252447035,6.101587252447035,0.0
4473,perov_4473.cif,0.23343580764600003,0.0018374654734000001,0.88,False,-0.00013655676090182272,YYO2S,6.240345858214011,4.04034585821401,2.2
4474,perov_4474.cif,0.295957616375,0.0018374654734000001,0.96,True,0.0023640935813560304,BiIrO2S,5.994496116796628,5.994496116796628,0.0
4475,perov_4475.cif,0.191502775114,0.0018374654734000001,2.42,True,3.9817143785170788,KPdN3,5.288782680051259,5.288782680051259,0.0
4476,perov_4476.cif,0.173206409447,0.0036749309468000002,1.96,True,0.0,MoLaO2F,5.867085894745811,5.867085894745811,0.0
4477,perov_4477.cif,0.194670782484,0.0018374654734000001,1.36,True,0.31881562110410044,SiNbN3,5.927260781848518,5.927260781848518,0.0
4478,perov_4478.cif,0.329869605911,0.0018374654734000001,1.34,True,-0.20428100865918192,InIrON2,5.804346757866593,5.804346757866593,0.0
4479,perov_4479.cif,0.276423127972,0.0036749309468000002,1.76,True,0.8235512215556627,TaMgOFN,6.144959829758352,6.144959829758352,0.0
4480,perov_4480.cif,0.23245224433000003,0.0018374654734000001,1.6,True,2.9999991336353435,CsNbN3,5.074829640128932,5.074829640128932,0.0
4481,perov_4481.cif,-0.0059558840237700006,0.0018374654734000001,3.24,True,0.0,BCaO2S,5.063514547180817,5.063514547180817,0.0
4482,perov_4482.cif,0.34874104934199995,0.0036749309468000002,1.1,True,2.9306055560647466,TaAlO2F,5.998821152976736,5.998821152976736,0.0
4483,perov_4483.cif,0.0133771342169,0.0018374654734000001,2.26,True,0.0,ZnBaO2S,5.306095087022738,5.306095087022738,0.0
4484,perov_4484.cif,0.309850352765,0.0018374654734000001,1.52,True,0.017583276094423898,PtCoN3,6.205622837025298,6.205622837025298,0.0
4485,perov_4485.cif,0.153820908412,0.0018374654734000001,1.88,True,-0.0006337085386701434,MgScON2,5.489443335928161,5.489443335928161,0.0
4486,perov_4486.cif,0.23038748258900002,0.0018374654734000001,0.94,False,0.00016367538387773823,GeSiO2S,6.6416857051195635,5.341685705119564,1.3
4487,perov_4487.cif,0.392495558027,0.0018374654734000001,0.66,True,1.107123134344425,LaGeN3,5.565108057634159,5.565108057634159,0.0
4488,perov_4488.cif,0.279942911453,0.0018374654734000001,2.5,True,1.7848057551543004,TeAuN3,6.562514530820428,6.562514530820428,0.0
4489,perov_4489.cif,0.27986888127500004,0.0018374654734000001,1.34,True,0.7371966794328096,ReGeO2S,5.789705964937648,5.789705964937648,0.0
4490,perov_4490.cif,0.08196981122330001,0.0018374654734000001,1.5,True,1.4681303541854511,NiNaO3,5.568477805545808,5.568477805545808,0.0
4491,perov_4491.cif,0.221003946659,0.0018374654734000001,1.02,True,2.999370114729212,SiMnO3,5.966325790082017,5.966325790082017,0.0
4492,perov_4492.cif,0.257458067853,0.0018374654734000001,0.62,True,0.013921672247892756,ReTiON2,5.599708929150702,5.599708929150702,0.0
4493,perov_4493.cif,0.256968067139,0.0018374654734000001,1.34,True,2.8770180272061068,AlFeO3,5.6115546773981855,5.6115546773981855,0.0
4494,perov_4494.cif,0.24050834439100002,0.0018374654734000001,0.78,True,0.28225595142452065,AuWO2S,6.171656771433552,6.171656771433552,0.0
4495,perov_4495.cif,0.209430496358,0.0018374654734000001,2.38,True,0.7205056383069107,CaAgN3,5.186588308171191,5.186588308171191,0.0
4496,perov_4496.cif,0.24333583157900002,0.0036749309468000002,2.06,True,3.9309140841045194,OsCuOFN,6.595889903667457,6.595889903667457,0.0
4497,perov_4497.cif,0.219456390501,0.0018374654734000001,0.32,True,1.970840543349295,GaCrO3,5.510811669224607,5.510811669224607,0.0
4498,perov_4498.cif,0.19581691132100001,0.0036749309468000002,1.24,True,-0.7985269042284033,SrCuOFN,5.515915763949048,5.515915763949048,0.0
4499,perov_4499.cif,0.252456713098,0.0018374654734000001,0.5,True,-0.2996231125265251,PbTaON2,5.761286216460963,5.761286216460963,0.0
4500,perov_4500.cif,0.252369968141,0.0018374654734000001,1.58,True,1.2155060576290708,ScCuON2,5.6882366437119245,5.6882366437119245,0.0
4501,perov_4501.cif,0.14865740289100002,0.0018374654734000001,0.78,True,0.7880841722979033,AgHfO2S,5.565491672191116,5.565491672191116,0.0
4502,perov_4502.cif,0.267603117651,0.0036749309468000002,2.4,True,0.9026965523873152,HfTlOFN,6.391773369880758,6.391773369880758,0.0
4503,perov_4503.cif,0.197864804435,0.0018374654734000001,0.78,True,1.8059641381354117,CrNbN3,5.642105891338559,5.642105891338559,0.0
4504,perov_4504.cif,0.12054630464000002,0.0036749309468000002,1.62,True,0.5636889036188926,LiPtOFN,6.252307963458916,6.252307963458916,0.0
4505,perov_4505.cif,0.182326658163,0.0018374654734000001,0.72,True,4.9999845126459626,MnHfO2S,5.3719941516681775,5.3719941516681775,0.0
4506,perov_4506.cif,-0.00720624574665,0.0018374654734000001,3.38,True,0.0,BBaO2S,5.2673779896324895,5.2673779896324895,0.0
4507,perov_4507.cif,0.348542729735,0.0018374654734000001,1.22,True,0.2430009867679654,TaOsN3,5.988791449189308,5.988791449189308,0.0
4508,perov_4508.cif,0.130150462873,0.0018374654734000001,2.3,True,3.2542693338887827,PtCdO2S,6.136600508217112,6.136600508217112,0.0
4509,perov_4509.cif,0.132281942052,0.0018374654734000001,1.08,True,-0.1296749859361726,ZnCaO2S,5.100733175926656,5.100733175926656,0.0
4510,perov_4510.cif,0.155872652105,0.0018374654734000001,0.96,True,0.1752147840873075,GaGaO3,5.347329882875268,5.347329882875268,0.0
4511,perov_4511.cif,0.161239154507,0.0018374654734000001,1.68,True,1.9362458249155023,HgInON2,5.778022104437765,5.778022104437765,0.0
4512,perov_4512.cif,0.347047879565,0.0018374654734000001,1.34,True,2.6999282326301003e-05,YTeO2N,5.911497063028103,5.911497063028103,0.0
4513,perov_4513.cif,0.227063559098,0.0018374654734000001,1.28,True,0.2144696129939838,SnBiON2,5.880778406590777,5.880778406590777,0.0
4514,perov_4514.cif,0.0640223870431,0.0036749309468000002,2.36,True,1.9966707098860663,BeLiO2F,6.137063988491999,6.137063988491999,0.0
4515,perov_4515.cif,0.309549343809,0.0018374654734000001,1.2,True,3.3754536081285527,ReFeO2S,5.646900672236703,5.646900672236703,0.0
4516,perov_4516.cif,0.33784403659,0.0018374654734000001,1.16,True,-0.6132283604700609,WCoO2N,6.003563368897388,6.003563368897388,0.0
4517,perov_4517.cif,0.321636551653,0.0018374654734000001,0.88,True,2.4454841564168386,WCrON2,5.7912442613007045,5.7912442613007045,0.0
4518,perov_4518.cif,0.248356585516,0.0018374654734000001,3.1,True,3.0337939036786854,ReHgON2,6.083250979322482,6.083250979322482,0.0
4519,perov_4519.cif,0.26697174507,0.0018374654734000001,1.64,True,1.1294371309945854,CaRhN3,5.1534595763380135,5.1534595763380135,0.0
4520,perov_4520.cif,0.036272086460099995,0.0036749309468000002,1.52,True,0.0,HgBaO2F,6.0725233830525855,6.0725233830525855,0.0
4521,perov_4521.cif,0.183809551503,0.0036749309468000002,0.94,True,2.7524980235144594,PdFeO2F,6.391243223977223,6.391243223977223,0.0
4522,perov_4522.cif,0.316919234772,0.0018374654734000001,1.38,True,1.2770778907205909,MoAlON2,5.488917300430414,5.488917300430414,0.0
4523,perov_4523.cif,0.239724726981,0.0018374654734000001,3.04,True,-1.3695755113161372,LaKN3,4.8942382663620245,4.8942382663620245,0.0
4524,perov_4524.cif,0.17036087712499998,0.0018374654734000001,1.44,True,-2.271502912956304,NiHfO2N,5.7314734340134725,5.7314734340134725,0.0
4525,perov_4525.cif,0.171523104322,0.0018374654734000001,1.74,True,0.9351865535146899,SiRhO2S,5.911410914026217,5.911410914026217,0.0
4526,perov_4526.cif,0.21624154853,0.0018374654734000001,1.84,True,0.9369531026433152,PdPdON2,6.016123791327994,6.016123791327994,0.0
4527,perov_4527.cif,0.23591781326900002,0.0036749309468000002,0.8,True,1.9999845221543109,TiScO2F,5.841457869392863,5.841457869392863,0.0
4528,perov_4528.cif,0.378458693859,0.0018374654734000001,0.78,True,0.03872423779600709,BaOsON2,5.539384229004805,5.539384229004805,0.0
4529,perov_4529.cif,0.12104436818499999,0.0036749309468000002,1.74,True,4.613829937537485,RuCdO2F,6.518255569281338,6.518255569281338,0.0
4530,perov_4530.cif,0.369005810557,0.0018374654734000001,2.46,True,0.007444570282238771,IrTeN3,6.461649053293464,6.461649053293464,0.0
4531,perov_4531.cif,0.21479866309,0.0018374654734000001,1.36,True,0.007918849686454621,AsSnO2N,6.2312293680994175,6.2312293680994175,0.0
4532,perov_4532.cif,0.17520250451900002,0.0036749309468000002,0.56,True,2.0106246809702704,CuCrO2F,6.2888657981410105,6.2888657981410105,0.0
4533,perov_4533.cif,0.192617675356,0.0018374654734000001,0.96,True,1.1466553128116352,InMgO3,5.484734102720509,5.484734102720509,0.0
4534,perov_4534.cif,0.18276488318300002,0.0036749309468000002,1.2,True,-0.7677646645973055,CaZnOFN,5.614519075154943,5.614519075154943,0.0
4535,perov_4535.cif,0.216450353598,0.0018374654734000001,0.74,False,0.00034054506313914304,SiZrO3,7.410440536779358,4.4704405367793605,2.9
4536,perov_4536.cif,0.322194523917,0.0018374654734000001,1.04,True,0.008180491252922195,PbIrO2N,6.116782586683601,6.116782586683601,0.0
4537,perov_4537.cif,0.25481228554900004,0.0036749309468000002,1.86,True,2.461800802271163,IrSbOFN,6.820443607180213,6.820443607180213,0.0
4538,perov_4538.cif,0.194107551395,0.0018374654734000001,0.92,True,0.9999357495706888,InScO2N,5.321652411170666,5.321652411170666,0.0
4539,perov_4539.cif,0.162065331791,0.0036749309468000002,1.12,True,2.00108172687948,RbMnOFN,5.4841305263891575,5.4841305263891575,0.0
4540,perov_4540.cif,0.07968228891160001,0.0018374654734000001,3.66,True,0.0,FeKO2N,5.266149117938428,5.266149117938428,0.0
4541,perov_4541.cif,0.206216318345,0.0018374654734000001,0.56,True,2.9546882736279265,FeVON2,5.661590664121213,5.661590664121213,0.0
4542,perov_4542.cif,0.104759265382,0.0018374654734000001,2.7,True,1.3869373382337982,LiCaN3,4.7986434469518215,4.7986434469518215,0.0
4543,perov_4543.cif,0.051689512719,0.0036749309468000002,1.32,True,1.4661432468964897,HgCaO2F,5.837498381301428,5.837498381301428,0.0
4544,perov_4544.cif,0.0233793281727,0.0036749309468000002,3.12,True,0.0,MgKOFN,5.530002785421671,5.530002785421671,0.0
4545,perov_4545.cif,0.236564276032,0.0036749309468000002,0.8,True,1.1264505059490248,PdGeO2F,6.552872303767901,6.552872303767901,0.0
4546,perov_4546.cif,0.150135417302,0.0036749309468000002,2.08,True,1.3953253523188742,SiZnOFN,6.55163080212518,6.55163080212518,0.0
4547,perov_4547.cif,0.298202778932,0.0036749309468000002,0.44,True,-3.039376007541201e-15,SnHfO2F,6.129890311380295,6.129890311380295,0.0
4548,perov_4548.cif,0.211078124991,0.0036749309468000002,1.92,True,-0.0003101961654783145,AlIrO2F,6.324371811067616,6.324371811067616,0.0
4549,perov_4549.cif,0.20397663285300002,0.0018374654734000001,1.04,True,0.8477373501668453,CaRhO2S,5.0658729620590695,5.0658729620590695,0.0
4550,perov_4550.cif,0.06673078322930001,0.0036749309468000002,3.8,True,0.0,IrRbOFN,5.895320848090127,5.895320848090127,0.0
4551,perov_4551.cif,0.31257274913800004,0.0018374654734000001,1.32,True,0.006597705844598066,HfRhON2,5.665227133095182,5.665227133095182,0.0
4552,perov_4552.cif,0.359721880189,0.0018374654734000001,1.76,True,0.007944831230563667,HfRuO2N,5.757291927338217,5.757291927338217,0.0
4553,perov_4553.cif,0.291172048448,0.0018374654734000001,1.5,True,0.7661566899446515,RuTeON2,6.2882490116996435,6.2882490116996435,0.0
4554,perov_4554.cif,0.277691956391,0.0018374654734000001,0.68,True,-0.6644911525965482,TiWO2N,5.744857055415598,5.744857055415598,0.0
4555,perov_4555.cif,0.183611725552,0.0018374654734000001,0.94,True,0.4346576013990565,RhHfO2N,5.705181162405852,5.705181162405852,0.0
4556,perov_4556.cif,0.183219815953,0.0036749309468000002,0.9,True,0.9560251119483708,GeGaOFN,6.09168706701775,6.09168706701775,0.0
4557,perov_4557.cif,0.333965735077,0.0036749309468000002,0.74,True,-3.165625400011327e-15,PbReOFN,6.1627537992707175,6.1627537992707175,0.0
4558,perov_4558.cif,0.31329232588399997,0.0036749309468000002,1.16,True,1.1284990578182246,ScTaOFN,6.004295917826723,6.004295917826723,0.0
4559,perov_4559.cif,-0.0193235279467,0.0018374654734000001,3.44,True,0.0,NiKO2S,5.18716037893938,5.18716037893938,0.0
4560,perov_4560.cif,0.182134162301,0.0036749309468000002,0.86,True,2.7944567420714563e-15,CuSbO2F,6.631504778482123,6.631504778482123,0.0
4561,perov_4561.cif,0.24168228745200002,0.0018374654734000001,1.64,True,1.7454759644030309,FeCuN3,5.873290147432656,5.873290147432656,0.0
4562,perov_4562.cif,0.244464134224,0.0018374654734000001,0.56,True,-0.055359277820187534,SrTaON2,5.043540702832342,5.043540702832342,0.0
4563,perov_4563.cif,0.153017073334,0.0018374654734000001,0.82,True,0.9995878860647379,CdLaO3,5.641039224367348,5.641039224367348,0.0
4564,perov_4564.cif,0.198655482106,0.0036749309468000002,1.14,True,-0.9258596680406074,PbCuOFN,6.30088490098893,6.30088490098893,0.0
4565,perov_4565.cif,0.223819181428,0.0036749309468000002,1.14,True,2.9344853609605512,VSnOFN,6.1533301115875485,6.1533301115875485,0.0
4566,perov_4566.cif,0.0814773863382,0.0036749309468000002,2.44,True,0.0,RhCaOFN,5.576147466805134,5.576147466805134,0.0
4567,perov_4567.cif,0.09054862408,0.0018374654734000001,1.44,True,-0.0016350567380235942,LiTlO2S,5.663746873226705,5.663746873226705,0.0
4568,perov_4568.cif,0.280366560853,0.0018374654734000001,1.66,True,0.014011252278198327,HfPtO2S,5.823686422311008,5.823686422311008,0.0
4569,perov_4569.cif,0.276533170798,0.0018374654734000001,1.64,True,0.002392381967538873,CaPtON2,5.465480319258939,5.465480319258939,0.0
4570,perov_4570.cif,0.295259910795,0.0018374654734000001,1.92,True,1.906727158020317,NiIrN3,6.181863812019073,6.181863812019073,0.0
4571,perov_4571.cif,0.242481435836,0.0018374654734000001,1.22,True,2.572744279984459,HgCoO3,6.256115779379952,6.256115779379952,0.0
4572,perov_4572.cif,0.294003933186,0.0036749309468000002,1.68,True,0.0,IrCrOFN,6.4680424673029995,6.4680424673029995,0.0
4573,perov_4573.cif,0.229539262607,0.0036749309468000002,1.04,True,-0.2053668291728704,AlTiOFN,5.754675626610175,5.754675626610175,0.0
4574,perov_4574.cif,0.21922284431699998,0.0018374654734000001,0.38,True,-0.0008349083432013916,KTeO3,5.633191662212947,5.633191662212947,0.0
4575,perov_4575.cif,0.352404379661,0.0036749309468000002,1.1,True,4.550770358020506e-16,SbSiOFN,6.665393008010873,6.665393008010873,0.0
4576,perov_4576.cif,0.239179003664,0.0018374654734000001,1.84,True,0.8471080395627406,WMgN3,5.759933048457509,5.759933048457509,0.0
4577,perov_4577.cif,0.29901571989,0.0036749309468000002,1.9,True,1.1502549160348072,ZrPdO2F,6.253172586621741,6.253172586621741,0.0
4578,perov_4578.cif,0.41387309175399994,0.0018374654734000001,1.0,True,2.3800202282114924,ZrFeON2,5.674116429667821,5.674116429667821,0.0
4579,perov_4579.cif,0.09333956566610001,0.0036749309468000002,3.02,True,1.4290527550101395,TiCsO2F,5.368596678602884,5.368596678602884,0.0
4580,perov_4580.cif,0.178822540938,0.0018374654734000001,3.92,True,2.4791026966649237,SbRbN3,5.3445625687441085,5.3445625687441085,0.0
4581,perov_4581.cif,0.0724570948162,0.0036749309468000002,1.96,True,2.998052730497227,AuLiO2F,6.340983135425019,6.340983135425019,0.0
4582,perov_4582.cif,0.0571375439021,0.0036749309468000002,2.58,True,0.0,NiBaOFN,5.827382392670582,5.827382392670582,0.0
4583,perov_4583.cif,0.22231080488000002,0.0018374654734000001,0.8,True,-0.00043950785281656845,TlZrO2N,6.069593671996733,6.069593671996733,0.0
4584,perov_4584.cif,0.0671508346277,0.0036749309468000002,2.66,True,0.0,RhBaOFN,5.800650153152503,5.800650153152503,0.0
4585,perov_4585.cif,0.23991486567499998,0.0018374654734000001,1.28,True,-5.3514198634034943e-05,GaBO2S,5.457547465077707,5.457547465077707,0.0
4586,perov_4586.cif,0.150921250984,0.0036749309468000002,1.58,True,5.018760072512902,MnAuO2F,6.615335689630606,6.615335689630606,0.0
4587,perov_4587.cif,0.373155502342,0.0018374654734000001,1.06,True,0.698843228954006,HfBeO2N,5.8561873812784135,5.8561873812784135,0.0
4588,perov_4588.cif,0.38376661091,0.0018374654734000001,1.02,True,0.4565106416011843,HfCoO3,5.745416967613701,5.745416967613701,0.0