,id,fermi level,fermi width,e_form,gap is direct,mu_b,formula,vbm,cbm,gap gllbsc
151,perov_151.cif,0.183041544598,0.0036749309468000002,0.66,True,-0.9863570977622148,AuVO2F,6.572094494679562,6.572094494679562,0.0
152,perov_152.cif,0.19786788272599998,0.0036749309468000002,1.0,True,-5.698733477896081e-13,SnPdO2F,6.4650789045252,6.4650789045252,0.0
153,perov_153.cif,0.244028251726,0.0018374654734000001,1.44,True,2.23664778247894,ReBiO2S,5.660741281148435,5.660741281148435,0.0
154,perov_154.cif,0.240518454999,0.0036749309468000002,1.64,True,0.06984096206626766,PtBeO2F,6.940941617438644,6.940941617438644,0.0
155,perov_155.cif,0.21995822978500001,0.0018374654734000001,1.28,True,3.6600554824476665,WLaO3,5.633378210269858,5.633378210269858,0.0
156,perov_156.cif,0.107908209174,0.0018374654734000001,1.46,True,1.9996694798505,PbCaO2S,4.965357513608535,4.965357513608535,0.0
157,perov_157.cif,0.21143993571800002,0.0036749309468000002,1.78,True,4.187382981321843,FePtOFN,6.637923898485199,6.637923898485199,0.0
158,perov_158.cif,0.191792165297,0.0018374654734000001,2.48,True,0.9011021654621164,CaCaN3,4.5070224240233765,4.5070224240233765,0.0
159,perov_159.cif,0.120031075682,0.0018374654734000001,2.16,True,4.999993386549594,RbYN3,4.914982259641295,4.914982259641295,0.0
160,perov_160.cif,0.20932507697900002,0.0018374654734000001,1.78,True,-0.5821920960078061,RhPdO2N,6.017146230347339,6.017146230347339,0.0
161,perov_161.cif,0.216766952179,0.0018374654734000001,3.9,True,-0.018884499444080164,TeCsN3,5.406596244092064,5.406596244092064,0.0
162,perov_162.cif,0.162888490549,0.0018374654734000001,0.64,True,-0.0012261906149943788,ZnTaON2,5.918362103790344,5.918362103790344,0.0
163,perov_163.cif,0.212043107201,0.0018374654734000001,1.1,True,0.0005404237996273763,RhCuO2S,5.8401682823754175,5.8401682823754175,0.0
164,perov_164.cif,0.259944033325,0.0018374654734000001,1.86,True,0.0012535642843349848,BeSiN3,6.172786456088986,6.172786456088986,0.0
165,perov_165.cif,0.363553330295,0.0036749309468000002,1.4,True,3.2421417665095613,HfMnOFN,5.913103586462817,5.913103586462817,0.0
166,perov_166.cif,0.265998119705,0.0018374654734000001,1.44,True,0.8636294652683887,ZnIrO2N,6.283550738152809,6.283550738152809,0.0
167,perov_167.cif,0.12521045996400001,0.0018374654734000001,2.62,True,1.9248403072904487,LiAgN3,5.522179757611414,5.522179757611414,0.0
168,perov_168.cif,0.22428292530000002,0.0018374654734000001,1.14,True,1.9730706466596108,CoSbON2,6.078757220188256,6.078757220188256,0.0
169,perov_169.cif,0.20677894403900002,0.0036749309468000002,-0.04,False,4.9892156034924744e-15,AgTiO2F,7.583701959794139,4.783701959794137,2.8
170,perov_170.cif,0.231131918941,0.0036749309468000002,1.92,True,-4.320796261454489e-15,BReOFN,6.284581407839652,6.284581407839652,0.0
171,perov_171.cif,0.303359262595,0.0018374654734000001,0.72,True,0.4809860687513279,BiNiO3,5.991504438703276,5.991504438703276,0.0
172,perov_172.cif,0.277458132601,0.0018374654734000001,0.9,True,0.00047097936397832996,GaReN3,5.477463808439933,5.477463808439933,0.0
173,perov_173.cif,0.275918406809,0.0036749309468000002,0.44,True,4.344626149682512,MnTiO2F,5.968710892095367,5.968710892095367,0.0
174,perov_174.cif,0.21464632128,0.0018374654734000001,1.52,True,-8.35098874526394e-05,RuBeO2S,6.000090296032169,6.000090296032169,0.0
175,perov_175.cif,0.216671131617,0.0018374654734000001,2.02,True,3.7938057868454633,RbRhON2,5.254236562109782,5.254236562109782,0.0
176,perov_176.cif,0.139702356239,0.0036749309468000002,1.12,True,1.0187964917098782,PdBiO2F,6.406908223781048,6.406908223781048,0.0
177,perov_177.cif,0.216842429298,0.0018374654734000001,0.88,True,0.011324295589091092,RbRuO2N,5.339622407483751,5.339622407483751,0.0
178,perov_178.cif,0.285826797925,0.0018374654734000001,1.2,True,1.2168549039408063,TiAsO2N,5.962712442529511,5.962712442529511,0.0
179,perov_179.cif,0.0990222889951,0.0018374654734000001,3.44,True,0.3315067970286858,TiRbO2S,4.907757076251843,4.907757076251843,0.0
180,perov_180.cif,0.308874646834,0.0036749309468000002,1.36,True,1.4634027877391364e-15,SiSiO2F,6.687301707365331,6.687301707365331,0.0
181,perov_181.cif,0.19726782125700001,0.0036749309468000002,0.66,True,-0.5139648724053527,PdNbOFN,6.3276146630539545,6.3276146630539545,0.0
182,perov_182.cif,0.214554865204,0.0018374654734000001,1.7,True,0.8910574854732654,AuNiO2N,6.3672304786696285,6.3672304786696285,0.0
183,perov_183.cif,0.280403744344,0.0018374654734000001,2.02,True,-0.3466443073598806,ZrAuO2S,5.941984393168863,5.941984393168863,0.0
184,perov_184.cif,0.22573815359700003,0.0018374654734000001,1.06,True,1.9973682622276905,YMgO2N,5.477586730885595,5.477586730885595,0.0
185,perov_185.cif,0.16296616969699998,0.0018374654734000001,1.24,True,0.27387458714095203,SnHgO2S,6.021488470496581,6.021488470496581,0.0
186,perov_186.cif,0.116982308235,0.0036749309468000002,2.46,True,0.0,NbBaO2F,5.757674291754597,5.757674291754597,0.0
187,perov_187.cif,0.171139284576,0.0036749309468000002,2.52,True,0.0,OsYOFN,6.162769602236807,6.162769602236807,0.0
188,perov_188.cif,0.14665479958,0.0036749309468000002,2.54,True,0.7983133740436229,AlAuOFN,6.378112752182102,6.378112752182102,0.0
189,perov_189.cif,0.0483402990494,0.0018374654734000001,3.08,True,0.0,CuCsO2S,5.102940366915808,5.102940366915808,0.0
190,perov_190.cif,0.247910354809,0.0018374654734000001,1.84,True,-2.1109317026613152,RuPtO2N,6.3509459173756255,6.3509459173756255,0.0
191,perov_191.cif,0.153584506022,0.0018374654734000001,1.26,True,-2.950202231934399,CrNaO2N,5.346904565351731,5.346904565351731,0.0
192,perov_192.cif,0.25815642579500003,0.0036749309468000002,0.9,True,-3.824592499128556e-15,ZnReOFN,6.3307753113155725,6.3307753113155725,0.0
193,perov_193.cif,0.116260966512,0.0018374654734000001,1.52,True,1.1154501766779354,CuPbO2N,5.905686591799906,5.905686591799906,0.0
194,perov_194.cif,0.160211337979,0.0018374654734000001,2.32,True,5.346045087761175,TlCdN3,6.224663239673201,6.224663239673201,0.0
195,perov_195.cif,0.198436192944,0.0018374654734000001,1.18,True,0.0,NbCdO3,5.967188116116137,5.967188116116137,0.0
196,perov_196.cif,0.10251183000700001,0.0018374654734000001,1.26,True,0.9938634672008709,KBaO3,4.880530348958813,4.880530348958813,0.0
197,perov_197.cif,0.193263191783,0.0018374654734000001,1.24,True,-3.1575219116298885,MnCuO2N,5.8531420403790975,5.8531420403790975,0.0
198,perov_198.cif,0.154075608609,0.0018374654734000001,1.46,True,1.0911004241406914,AgPdO2S,5.869818377727442,5.869818377727442,0.0
199,perov_199.cif,0.22927325563499998,0.0036749309468000002,1.48,True,3.0605189169956905e-14,TaTeOFN,6.631736523899662,6.631736523899662,0.0
200,perov_200.cif,0.232971381318,0.0018374654734000001,2.18,True,0.018857041287937196,BIrO2N,6.237701419228874,6.237701419228874,0.0
201,perov_201.cif,0.159611361383,0.0018374654734000001,1.26,True,4.164580572755009,MnPdO2S,5.6657402173583575,5.6657402173583575,0.0
202,perov_202.cif,0.161498713696,0.0018374654734000001,1.88,True,2.76459794132964,AgCuO2N,6.0639703548012625,6.0639703548012625,0.0
203,perov_203.cif,0.357002424069,0.0036749309468000002,0.7,True,1.437589766480664e-15,CaSiO2F,5.73078430871592,5.73078430871592,0.0
204,perov_204.cif,0.117462797741,0.0018374654734000001,4.18,True,4.760612676437511,CoRbON2,5.254236562109782,5.254236562109782,0.0
205,perov_205.cif,0.313290968085,0.0018374654734000001,1.18,True,-0.06280496866187724,TlOsON2,6.393652087273821,6.393652087273821,0.0
206,perov_206.cif,0.26605974168200003,0.0018374654734000001,1.1,True,0.21873916538735835,AgOsO3,6.2146310643781515,6.2146310643781515,0.0
207,perov_207.cif,0.148998729371,0.0036749309468000002,1.64,True,2.003133313445657,NbCaO2F,5.534834901085676,5.534834901085676,0.0
208,perov_208.cif,0.27457931703,0.0018374654734000001,1.02,True,0.0062122623619806925,SbOsO2S,6.088161816337039,6.088161816337039,0.0
209,perov_209.cif,0.158108947553,0.0036749309468000002,0.68,True,0.0075379652642197925,InAsO2F,6.270983369951181,6.270983369951181,0.0
210,perov_210.cif,0.212538326818,0.0018374654734000001,1.18,True,0.00029833709151461097,TePbO3,6.1941451033744634,6.1941451033744634,0.0
211,perov_211.cif,0.20506172354200003,0.0018374654734000001,2.1,True,0.0,RuLiO3,5.655002322092821,5.655002322092821,0.0
212,perov_212.cif,0.227199311151,0.0018374654734000001,1.46,True,-1.581205958370851,TiSbO2S,5.6779064683408045,5.6779064683408045,0.0
213,perov_213.cif,0.0918032996224,0.0018374654734000001,3.54,True,0.0,OsBaO2S,5.407104936164889,5.407104936164889,0.0
214,perov_214.cif,0.11349456794000001,0.0018374654734000001,1.92,True,0.0,RbBeO2N,5.431343374306687,5.431343374306687,0.0
215,perov_215.cif,0.34217719950900005,0.0036749309468000002,0.68,True,1.546404852272126,BiCoO2F,6.363121147843593,6.363121147843593,0.0
216,perov_216.cif,0.179008365283,0.0018374654734000001,0.88,True,0.394657311723293,GaSnO2S,5.4600894072446495,5.4600894072446495,0.0
217,perov_217.cif,0.309214185921,0.0018374654734000001,1.42,True,0.03859559480970631,ZrBiON2,5.688023744667847,5.688023744667847,0.0
218,perov_218.cif,0.314456268513,0.0018374654734000001,0.54,True,0.004470753488739375,SbMoON2,5.961204611019966,5.961204611019966,0.0
219,perov_219.cif,0.227341530585,0.0018374654734000001,0.56,True,0.0031773613916143964,TlMoO2S,5.964903989662508,5.964903989662508,0.0
220,perov_220.cif,0.22633434701900002,0.0036749309468000002,0.92,False,-4.832313498837028e-16,PbBO2F,6.9405629842932,5.640562984293197,1.3
221,perov_221.cif,0.330272194397,0.0018374654734000001,0.58,True,-4.501784600233443,MnReO2N,5.724826578145554,5.724826578145554,0.0
222,perov_222.cif,0.22164748809300003,0.0018374654734000001,1.16,True,-0.08641776372651633,CoCoO2N,5.976022925671762,5.976022925671762,0.0
223,perov_223.cif,0.23262906224500002,0.0018374654734000001,0.8,True,0.16057764989530374,CoCrON2,5.7646778000203325,5.7646778000203325,0.0
224,perov_224.cif,0.283737256928,0.0018374654734000001,0.64,True,0.052914377688985326,AgReO2N,5.931033010434947,5.931033010434947,0.0
225,perov_225.cif,0.17400217391699999,0.0018374654734000001,1.22,True,3.834788946938034,FeTlO2S,6.013062847269553,6.013062847269553,0.0
226,perov_226.cif,0.103851377302,0.0018374654734000001,1.4,True,1.9993172344783259,SrCaO2S,4.34676941625414,4.34676941625414,0.0
227,perov_227.cif,0.324993805916,0.0018374654734000001,0.26,True,-0.2754343580212932,ScTiO3,5.4750753200432225,5.4750753200432225,0.0
228,perov_228.cif,0.309311647594,0.0018374654734000001,0.82,True,-0.0005500319005393549,CaTeO2N,5.488123524127178,5.488123524127178,0.0
229,perov_229.cif,0.155008497715,0.0036749309468000002,1.52,True,-0.7310008196830475,ZnCuOFN,6.472672423704837,6.472672423704837,0.0
230,perov_230.cif,0.278869449624,0.0018374654734000001,1.54,True,0.6938717242506947,ScPdN3,5.6408161109257575,5.6408161109257575,0.0
231,perov_231.cif,0.275372061083,0.0036749309468000002,-0.06,True,4.0001441433225695,BaMnO2F,5.674710142273478,5.674710142273478,0.0
232,perov_232.cif,0.269449863975,0.0018374654734000001,1.36,True,0.046975105865353584,RuRuO2S,5.898764703991648,5.898764703991648,0.0
233,perov_233.cif,0.262481307334,0.0018374654734000001,0.98,True,1.3137885044950828,CaVN3,4.97354077531833,4.97354077531833,0.0
234,perov_234.cif,0.278775055707,0.0018374654734000001,2.04,True,-0.00043340581582829136,SiTeO2N,6.40413874193617,6.40413874193617,0.0
235,perov_235.cif,0.19992162998399998,0.0018374654734000001,1.36,True,0.002601121387350247,PtBiO3,6.2808206052950775,6.2808206052950775,0.0
236,perov_236.cif,0.207051768977,0.0018374654734000001,3.96,True,0.0,IrBaN3,5.598295992742952,5.598295992742952,0.0
237,perov_237.cif,0.235278995472,0.0036749309468000002,0.8,True,1.9739522016948285e-07,SbZnO2F,6.62259941315668,6.62259941315668,0.0
238,perov_238.cif,0.196425548003,0.0018374654734000001,1.4,True,2.007888450154489,OsCaO2S,5.197833638727412,5.197833638727412,0.0
239,perov_239.cif,0.145082246437,0.0018374654734000001,1.62,True,0.9401333870077018,RbPtO2S,5.401200235664886,5.401200235664886,0.0
240,perov_240.cif,0.294061672007,0.0018374654734000001,1.82,True,3.832139203000544,FeAsN3,6.0740872666233585,6.0740872666233585,0.0
241,perov_241.cif,0.25082873755,0.0018374654734000001,0.8,True,1.3474181066668651,TiCrO2S,5.384538349373726,5.384538349373726,0.0
242,perov_242.cif,0.296559522494,0.0018374654734000001,1.98,True,2.557209289448629,SbPdN3,6.077724312172875,6.077724312172875,0.0
243,perov_243.cif,0.170020725251,0.0018374654734000001,0.78,True,0.32818582192499685,CuScO2S,5.552402787523277,5.552402787523277,0.0
244,perov_244.cif,0.23185313572799998,0.0018374654734000001,1.32,True,2.2344350529133634,CoRuN3,5.946437250705997,5.946437250705997,0.0
245,perov_245.cif,0.0936334631878,0.0036749309468000002,2.8,True,-1.2798776530267495,BCuOFN,6.425443136537204,6.425443136537204,0.0
246,perov_246.cif,0.257363000961,0.0036749309468000002,1.5,True,4.716505033947112,MnIrOFN,6.4680424673029995,6.4680424673029995,0.0
247,perov_247.cif,0.312415876069,0.0018374654734000001,0.84,True,1.9986104694678293,BaVN3,5.17378176093862,5.17378176093862,0.0
248,perov_248.cif,0.22394831547400001,0.0036749309468000002,1.08,True,0.4514618475274866,AgIrOFN,6.701019299504418,6.701019299504418,0.0
249,perov_249.cif,0.126199205631,0.0018374654734000001,1.74,True,-9.635201691174531e-11,SrBaO2S,4.521775801341863,4.521775801341863,0.0
250,perov_250.cif,0.327894080297,0.0018374654734000001,0.54,True,0.2556249129258248,SbTiO3,5.8991461039036075,5.8991461039036075,0.0
251,perov_251.cif,0.28523974491099996,0.0018374654734000001,0.14,True,0.9996779129553524,BaZrO2N,5.2586238669520755,5.2586238669520755,0.0
252,perov_252.cif,0.253345091087,0.0018374654734000001,1.16,True,-0.0009025296077328694,BaGaON2,5.088967930441992,5.088967930441992,0.0
253,perov_253.cif,0.29356379696400003,0.0018374654734000001,-0.26,True,0.9675342839364556,SrVO3,4.983603532620692,4.983603532620692,0.0
254,perov_254.cif,0.172989964897,0.0018374654734000001,2.26,True,-2.750439118475372,CrYN3,5.3924654485429215,5.3924654485429215,0.0
255,perov_255.cif,0.21410105997,0.0018374654734000001,2.14,True,-0.7213602048838545,IrAgO2N,6.280724128489388,6.280724128489388,0.0
256,perov_256.cif,0.282049205812,0.0018374654734000001,1.08,True,-0.7367619432289504,RhReO2S,5.712137237253858,5.712137237253858,0.0
257,perov_257.cif,0.249880191399,0.0036749309468000002,1.28,True,0.0,FeMoO2F,6.2248123579792365,6.2248123579792365,0.0
258,perov_258.cif,0.247040405537,0.0018374654734000001,1.2,True,3.9999996411901897,MoZrO2S,5.494260736915627,5.494260736915627,0.0
259,perov_259.cif,0.142504010807,0.0036749309468000002,1.4,True,4.299255631113814,MnYOFN,5.83475665333415,5.83475665333415,0.0
260,perov_260.cif,0.131563503432,0.0036749309468000002,0.78,True,0.0,TlTlO2F,7.080062217564928,7.080062217564928,0.0
261,perov_261.cif,0.349580904367,0.0036749309468000002,0.92,True,2.932915090562396,ZrHfO2F,5.928970492114442,5.928970492114442,0.0
262,perov_262.cif,0.25668482508,0.0018374654734000001,1.06,True,0.00110988303391224,YRhO2S,5.456672577654557,5.456672577654557,0.0
263,perov_263.cif,0.292289435679,0.0018374654734000001,1.18,True,0.0012582901051132467,ScCuO3,5.768752171941457,5.768752171941457,0.0
264,perov_264.cif,0.160360021239,0.0018374654734000001,2.56,True,0.002230761950077209,YKON2,4.983035364846899,4.983035364846899,0.0
265,perov_265.cif,0.353057376435,0.0018374654734000001,0.4,True,0.3265919667135115,YVO2N,5.4330475928330815,5.4330475928330815,0.0
266,perov_266.cif,0.122768858239,0.0018374654734000001,1.04,True,2.006893047308448,LiMnO2S,5.239597840985276,5.239597840985276,0.0
267,perov_267.cif,0.229355028631,0.0036749309468000002,1.44,True,6.666626592412965e-09,PtRuO2F,6.823727544981977,6.823727544981977,0.0
268,perov_268.cif,0.234531002222,0.0018374654734000001,0.16,False,-3.405206593061109e-05,CaSnO3,6.7832647109691075,3.743264710969107,3.0
269,perov_269.cif,0.382817768328,0.0018374654734000001,0.74,True,0.02117876358380855,LaWO2S,5.422105846392853,5.422105846392853,0.0
270,perov_270.cif,0.260731947004,0.0036749309468000002,1.14,True,-4.681772304408575e-15,GeOsOFN,6.630852410213533,6.630852410213533,0.0
271,perov_271.cif,0.19765496970899998,0.0018374654734000001,1.66,True,2.256432247265145,FeZnON2,5.906768749102363,5.906768749102363,0.0
272,perov_272.cif,0.09217371295119998,0.0018374654734000001,3.44,True,0.0,FeRbO3,5.267752524669626,5.267752524669626,0.0
273,perov_273.cif,0.167435314542,0.0018374654734000001,0.92,True,0.5673726543604012,SrCdO3,5.194738975778842,5.194738975778842,0.0
274,perov_274.cif,0.18179136971999998,0.0018374654734000001,3.14,True,3.2885759132896126,AlTlN3,5.836280034335604,5.836280034335604,0.0
275,perov_275.cif,0.27286914813900004,0.0018374654734000001,1.14,True,0.00853003104315775,SbCuO3,6.215569633337076,6.215569633337076,0.0
276,perov_276.cif,0.238871221204,0.0018374654734000001,2.1,True,2.124327620974416,InLaN3,5.142737696769027,5.142737696769027,0.0
277,perov_277.cif,0.168240433489,0.0018374654734000001,1.54,True,0.8054738019568344,BeNiO2N,6.162467245617878,6.162467245617878,0.0
278,perov_278.cif,0.263007469167,0.0018374654734000001,1.94,True,2.0355016979441967,AuGeN3,6.33442758232145,6.33442758232145,0.0
279,perov_279.cif,0.328016317778,0.0018374654734000001,1.7,True,0.0009262291139684463,TeSbN3,6.338455755046081,6.338455755046081,0.0
280,perov_280.cif,0.086926409896,0.0018374654734000001,2.2,True,1.0177433557109588,InKO3,5.0247261523684665,5.0247261523684665,0.0
281,perov_281.cif,0.24560275928599998,0.0018374654734000001,0.8,True,0.4277635316784227,NiReO2S,5.738461565864407,5.738461565864407,0.0
282,perov_282.cif,0.252875200411,0.0018374654734000001,1.96,True,1.3992314493098064,ReAuON2,6.206357620640129,6.206357620640129,0.0
283,perov_283.cif,0.165256589348,0.0036749309468000002,1.66,True,3.013720135260604,MoYOFN,5.890159853940776,5.890159853940776,0.0
284,perov_284.cif,0.32554240453,0.0018374654734000001,0.54,True,1.114023450110054,LaCoO2S,5.397232752023678,5.397232752023678,0.0
285,perov_285.cif,0.10062838787900001,0.0036749309468000002,1.36,True,0.0,RbYOFN,5.318110188023599,5.318110188023599,0.0
286,perov_286.cif,0.263752182269,0.0036749309468000002,1.14,True,-1.5283014208025005e-13,YZnOFN,6.047643220343192,6.047643220343192,0.0
287,perov_287.cif,0.29013392794,0.0018374654734000001,0.82,True,-1.9656922761717368,TiNbO3,5.6761361360761535,5.6761361360761535,0.0
288,perov_288.cif,0.237466985736,0.0036749309468000002,0.98,True,5.994089403671929,VMnOFN,5.977576067733513,5.977576067733513,0.0
289,perov_289.cif,0.245161615155,0.0018374654734000001,1.02,True,2.116654739272132,CaNiO2N,5.250491311099615,5.250491311099615,0.0
290,perov_290.cif,0.324327484639,0.0018374654734000001,1.22,True,0.4891913649801545,InOsN3,5.6631068662986905,5.6631068662986905,0.0
291,perov_291.cif,0.129603869904,0.0036749309468000002,2.66,True,0.0,TaSrO2F,5.4572130230642815,5.4572130230642815,0.0
292,perov_292.cif,0.23474493349800002,0.0018374654734000001,0.48,True,1.927513247840569,ZnCrO3,5.886505794930151,5.886505794930151,0.0
293,perov_293.cif,0.237560922654,0.0018374654734000001,1.54,True,1.037390420425398,AlCoO2S,5.463497705410052,5.463497705410052,0.0
294,perov_294.cif,0.288778532106,0.0018374654734000001,0.84,True,0.7293283847336162,CdReO2S,5.746265486232092,5.746265486232092,0.0
295,perov_295.cif,0.302954251071,0.0018374654734000001,1.2,True,-0.0033418974448251727,IrGeO2N,6.32535188037662,6.32535188037662,0.0
296,perov_296.cif,0.183043810799,0.0018374654734000001,2.1,True,2.9976909463982366,CaPbN3,5.051206261999716,5.051206261999716,0.0
297,perov_297.cif,0.164756320581,0.0018374654734000001,3.2,True,0.37476384375703375,ZnCsON2,5.220758265743815,5.220758265743815,0.0
298,perov_298.cif,0.285368233748,0.0018374654734000001,0.94,True,2.6725663895579665,RuWO3,6.101126416820692,6.101126416820692,0.0
299,perov_299.cif,0.283593983462,0.0018374654734000001,0.64,True,-1.4665280917765579e-05,TlGeO3,6.4053522945627535,6.4053522945627535,0.0
300,perov_300.cif,0.329210046486,0.0018374654734000001,1.06,True,-0.2192795243115984,NbGeN3,5.886866824639223,5.886866824639223,0.0