,id,fermi level,fermi width,e_form,gap is direct,mu_b,formula,vbm,cbm,gap gllbsc
7094,perov_7094.cif,0.19449620561,0.0036749309468000002,1.48,True,0.258476877400362,ScCdO2F,6.140986957217428,6.140986957217428,0.0
7095,perov_7095.cif,0.286045383303,0.0018374654734000001,1.64,True,1.1726356432947718,PtFeO2N,6.221586139197606,6.221586139197606,0.0
7096,perov_7096.cif,0.203442238567,0.0018374654734000001,0.92,True,-3.6487734145107193,MnMgO2N,5.648585595207035,5.648585595207035,0.0
7097,perov_7097.cif,0.18041682207100002,0.0018374654734000001,0.78,True,3.846323118154428,CrYO2S,5.300816763953902,5.300816763953902,0.0
7098,perov_7098.cif,0.251108518635,0.0018374654734000001,1.72,True,6.95244966486541e-06,BeScN3,6.150546980614137,5.350546980614134,0.8
7099,perov_7099.cif,0.275950414704,0.0018374654734000001,0.62,True,0.4323485597598769,NbZrON2,5.657245616280855,5.657245616280855,0.0
7100,perov_7100.cif,0.296412622866,0.0036749309468000002,1.08,True,0.0630130434440268,SnOsOFN,6.5420142571131645,6.5420142571131645,0.0
7101,perov_7101.cif,0.22124033475699997,0.0018374654734000001,1.86,True,0.0052405777111577114,NiBeON2,6.1193107901174155,6.1193107901174155,0.0
7102,perov_7102.cif,0.058800112209800005,0.0036749309468000002,1.62,True,0.0,InNaO2F,5.539230623023826,5.539230623023826,0.0
7103,perov_7103.cif,0.206240824139,0.0018374654734000001,1.16,True,0.8725346765385673,LaSrO2N,4.777847242708282,4.777847242708282,0.0
7104,perov_7104.cif,0.260082007535,0.0018374654734000001,0.98,True,3.4063242452475606e-05,YPdO2S,5.494222033491111,5.494222033491111,0.0
7105,perov_7105.cif,0.286844685538,0.0018374654734000001,1.2,True,0.4797965587164938,YCuO2N,5.675950666583472,5.675950666583472,0.0
7106,perov_7106.cif,0.246436552354,0.0036749309468000002,1.24,True,1.960425590632308e-11,TeSbOFN,6.858337293308463,6.858337293308463,0.0
7107,perov_7107.cif,0.186199551124,0.0018374654734000001,1.46,False,4.7588909675155826e-05,AlGaO2S,5.249998108862743,5.049998108862744,0.2
7108,perov_7108.cif,0.054668706443999994,0.0036749309468000002,1.42,True,-0.8332118856510942,MgSrO2F,5.360686243324775,5.360686243324775,0.0
7109,perov_7109.cif,0.295015479626,0.0018374654734000001,1.54,True,-0.8936177972680585,PtGeO2N,6.378924736286888,6.378924736286888,0.0
7110,perov_7110.cif,0.122359930635,0.0018374654734000001,0.58,False,8.822787304459663e-05,LiNbO2S,6.366200657270497,4.266200657270498,2.1
7111,perov_7111.cif,0.328879710419,0.0018374654734000001,1.22,True,4.755776647513699e-05,ScTeON2,5.924292896180575,5.924292896180575,0.0
7112,perov_7112.cif,0.0696523467822,0.0018374654734000001,3.0,True,1.6696989872708983,CrRbO2S,4.982276512488887,4.982276512488887,0.0
7113,perov_7113.cif,0.294171274341,0.0018374654734000001,1.14,True,3.6959732035120885,CrAsO2N,6.053250332395942,6.053250332395942,0.0
7114,perov_7114.cif,0.172130360773,0.0018374654734000001,0.72,True,-0.00012611307235359088,LiAsO3,5.843128789194228,5.843128789194228,0.0
7115,perov_7115.cif,0.137961402169,0.0018374654734000001,0.9,True,0.5868166808631194,CuLaO2S,5.441680745056269,5.441680745056269,0.0
7116,perov_7116.cif,0.261639124875,0.0036749309468000002,1.12,True,1.0408823610452382e-15,SrTeOFN,5.744820868593372,5.744820868593372,0.0
7117,perov_7117.cif,0.248618780852,0.0018374654734000001,0.92,False,-0.0003013791768159096,SnSiO2S,6.061410914026218,5.761410914026217,0.3
7118,perov_7118.cif,0.284369601414,0.0036749309468000002,1.6,True,4.838371283917934,ReMoOFN,6.165919057128887,6.165919057128887,0.0
7119,perov_7119.cif,0.170361894784,0.0036749309468000002,1.4,True,2.033963951025782,TiLaO2F,5.724971697363429,5.724971697363429,0.0
7120,perov_7120.cif,0.188507194967,0.0018374654734000001,3.9,True,0.0,ScKN3,4.9938214801814125,4.9938214801814125,0.0
7121,perov_7121.cif,0.20566685461399997,0.0036749309468000002,0.76,True,2.001807289338105,AsVO2F,6.461358090677318,6.461358090677318,0.0
7122,perov_7122.cif,0.24038585174000002,0.0018374654734000001,1.76,True,-0.7934262488615139,OsZnO2N,6.173886577789108,6.173886577789108,0.0
7123,perov_7123.cif,0.323310815315,0.0018374654734000001,1.28,True,-0.8331608509884895,NbOsO2N,6.043640776739434,6.043640776739434,0.0
7124,perov_7124.cif,0.123926707921,0.0036749309468000002,2.32,True,-4.597658250364548e-15,SiHgO2F,6.811827280368598,6.811827280368598,0.0
7125,perov_7125.cif,0.270524864672,0.0018374654734000001,1.34,True,0.6820445034484237,ScRuO2S,5.557351460967814,5.557351460967814,0.0
7126,perov_7126.cif,0.0822356870935,0.0036749309468000002,2.34,True,2.002230203543089,BiKOFN,5.632321810840181,5.632321810840181,0.0
7127,perov_7127.cif,0.28316501125,0.0018374654734000001,1.24,True,0.0003965913165018265,ScRhN3,5.602264779336278,5.602264779336278,0.0
7128,perov_7128.cif,0.293689843007,0.0018374654734000001,0.46,True,0.0015413422523398168,TaTaON2,5.822189038409038,5.822189038409038,0.0
7129,perov_7129.cif,0.22584508910599999,0.0018374654734000001,1.0,True,0.20152511137166051,SiVO2N,5.885817112835128,5.885817112835128,0.0
7130,perov_7130.cif,0.0965036090958,0.0018374654734000001,4.44,True,-0.08090692093979845,SiKON2,5.398302577538193,5.398302577538193,0.0
7131,perov_7131.cif,0.181374480906,0.0018374654734000001,0.92,True,-0.020687027115029698,AlAlO2N,5.3165130668117895,5.3165130668117895,0.0
7132,perov_7132.cif,0.145965886949,0.0036749309468000002,0.78,True,1.0044253625308903,NaCrOFN,5.704710149981996,5.704710149981996,0.0
7133,perov_7133.cif,0.0078069588679899994,0.0036749309468000002,1.34,True,2.9999921587567613,KLiO2F,5.329475974076144,5.329475974076144,0.0
7134,perov_7134.cif,0.20413418933699998,0.0018374654734000001,3.18,True,1.1408382016565568,TeBaN3,5.6293995518983575,5.6293995518983575,0.0
7135,perov_7135.cif,0.0385591696683,0.0018374654734000001,3.2,True,0.0,BCdO3,6.051307040650593,6.051307040650593,0.0
7136,perov_7136.cif,0.165093020914,0.0018374654734000001,1.54,True,-0.4085151216456434,RbHfON2,5.016107171912025,5.016107171912025,0.0
7137,perov_7137.cif,0.16834872101300002,0.0018374654734000001,1.66,True,3.3926538476338,WSrO2S,4.993126878002552,4.993126878002552,0.0
7138,perov_7138.cif,0.250425800087,0.0036749309468000002,1.74,True,5.800507954897111e-09,YAuO2F,6.415070531040852,6.415070531040852,0.0
7139,perov_7139.cif,0.11596126444499999,0.0036749309468000002,1.7,True,2.776816176461673,PdTlOFN,6.741281993154796,6.741281993154796,0.0
7140,perov_7140.cif,0.237396718884,0.0036749309468000002,0.68,True,-1.2439150728300167e-11,PdWOFN,6.449388825729959,6.449388825729959,0.0
7141,perov_7141.cif,0.19880192475000003,0.0018374654734000001,1.32,True,2.433860852840965,CdHfN3,5.659163840819378,5.659163840819378,0.0
7142,perov_7142.cif,0.17509151756400002,0.0018374654734000001,1.54,True,-0.03772915264682825,InLaO2N,5.215531827558051,5.215531827558051,0.0
7143,perov_7143.cif,0.16069106217700002,0.0036749309468000002,1.04,True,1.998051252460904,PbMgOFN,6.080680674285912,6.080680674285912,0.0
7144,perov_7144.cif,0.25903752462699997,0.0036749309468000002,1.48,True,-4.8370726703546614e-15,TlBOFN,6.692092736802709,6.692092736802709,0.0
7145,perov_7145.cif,0.203333127573,0.0018374654734000001,1.06,True,2.2970029612702203,SrZnO2N,5.163008903518121,5.163008903518121,0.0
7146,perov_7146.cif,0.159829051236,0.0036749309468000002,1.2,True,2.3663345427936573e-15,CaHgO2F,5.837498381301428,5.837498381301428,0.0
7147,perov_7147.cif,0.30651919224199997,0.0036749309468000002,0.2,False,1.579564810740112e-15,PbAlO2F,8.03607067645186,3.8360706764518606,4.2
7148,perov_7148.cif,0.261444421431,0.0018374654734000001,1.86,True,1.8820309843680043,AuRuN3,6.306643933891789,6.306643933891789,0.0
7149,perov_7149.cif,0.09442058639810001,0.0036749309468000002,2.38,True,4.026345197710782,CrCsO2F,5.450113508319134,5.450113508319134,0.0
7150,perov_7150.cif,0.212444078322,0.0018374654734000001,1.72,True,0.7821114556069233,LiIrON2,5.770245754190371,5.770245754190371,0.0
7151,perov_7151.cif,0.301220721426,0.0018374654734000001,1.68,True,1.37553356873552,SbRhN3,6.036186995468972,6.036186995468972,0.0
7152,perov_7152.cif,0.151358227633,0.0036749309468000002,1.74,True,2.481720342093954,PtInOFN,6.289257858823763,6.289257858823763,0.0
7153,perov_7153.cif,0.0739349145295,0.0018374654734000001,2.58,True,0.0,FeCaO3,5.203154581212369,5.203154581212369,0.0
7154,perov_7154.cif,0.200019610423,0.0018374654734000001,1.42,True,0.00012510644825880493,GeBiON2,5.960637219473371,5.960637219473371,0.0
7155,perov_7155.cif,0.12249334294000001,0.0018374654734000001,2.4,True,4.150639219604321,KPbN3,5.148416102644771,5.148416102644771,0.0
7156,perov_7156.cif,0.19132640275499999,0.0018374654734000001,1.16,True,0.0036909077582052423,CaPdO2S,5.100733175926656,5.100733175926656,0.0
7157,perov_7157.cif,0.33756777729599996,0.0036749309468000002,0.96,True,4.744716215738522,MnSiO2F,6.365581969301755,6.365581969301755,0.0
7158,perov_7158.cif,0.27194236726599996,0.0036749309468000002,0.78,False,2.7319851444742752e-15,AgSiO2F,7.894868206957639,5.2948682069576405,2.6
7159,perov_7159.cif,0.218472811585,0.0018374654734000001,1.26,True,1.6486316391174891,CaCuO2N,5.269446646583577,5.269446646583577,0.0
7160,perov_7160.cif,0.26389862594999997,0.0018374654734000001,1.46,True,0.8387277380505829,BeReO3,6.091792140492627,6.091792140492627,0.0
7161,perov_7161.cif,0.22969606981600002,0.0018374654734000001,2.06,True,3.5766941507936743,RhPtO3,6.337846490087024,6.337846490087024,0.0
7162,perov_7162.cif,0.37532054217,0.0018374654734000001,1.76,True,0.20964807279074196,HfPtN3,5.924375282883058,5.924375282883058,0.0
7163,perov_7163.cif,0.126790243081,0.0018374654734000001,0.36,True,0.9988490338160129,LiTaO2N,5.51181894378712,5.51181894378712,0.0
7164,perov_7164.cif,0.18043101806899997,0.0018374654734000001,2.3,True,-0.2559254015059137,MgLaON2,5.3799767857840255,5.3799767857840255,0.0
7165,perov_7165.cif,0.29835624609,0.0018374654734000001,1.44,True,5.796644423128327e-06,HfPdON2,5.704211732777656,5.704211732777656,0.0
7166,perov_7166.cif,0.183296698281,0.0036749309468000002,1.14,True,-2.5764039498659965e-15,ZnTeOFN,6.741281993154796,6.741281993154796,0.0
7167,perov_7167.cif,0.0920045739763,0.0018374654734000001,3.14,True,-0.2993898100924759,AsCsO2S,5.277400626728879,5.277400626728879,0.0
7168,perov_7168.cif,0.34535074187200004,0.0036749309468000002,1.52,True,2.0262827588371373,HfFeO2F,6.059882716808107,6.059882716808107,0.0
7169,perov_7169.cif,0.17405851450399998,0.0018374654734000001,1.98,True,0.15583191444899933,AsPbO2N,6.107591286563699,6.107591286563699,0.0
7170,perov_7170.cif,0.332239466778,0.0036749309468000002,1.2,True,0.26854711603076353,TaReOFN,6.227900553527504,6.227900553527504,0.0
7171,perov_7171.cif,0.30684571614100004,0.0018374654734000001,0.64,True,-5.815387934925672e-05,GaSiO3,5.789330883224316,5.789330883224316,0.0
7172,perov_7172.cif,0.237945061445,0.0018374654734000001,1.84,True,0.0010338547780506246,ScAgN3,5.6382786307663455,5.6382786307663455,0.0
7173,perov_7173.cif,0.413313670994,0.0018374654734000001,1.46,True,0.016390082100098624,WBN3,5.917014591372701,5.917014591372701,0.0
7174,perov_7174.cif,0.279328726254,0.0036749309468000002,0.76,True,4.605745267068699,MoTaO2F,6.237029944378426,6.237029944378426,0.0
7175,perov_7175.cif,0.13156732938899998,0.0036749309468000002,0.8,True,-8.902841748493788e-15,GaAsO2F,6.310929170282097,6.310929170282097,0.0
7176,perov_7176.cif,0.188327595134,0.0018374654734000001,1.34,True,2.932636435558827,TlInO2N,5.8777577164173485,5.8777577164173485,0.0
7177,perov_7177.cif,0.26309763618299997,0.0036749309468000002,0.84,True,0.5168947892995419,SiTiO2F,6.270372564828922,6.270372564828922,0.0
7178,perov_7178.cif,0.34875199848800004,0.0036749309468000002,1.5,True,-2.676117546887783e-12,ZrOsOFN,6.327586224080736,6.327586224080736,0.0
7179,perov_7179.cif,0.354492994096,0.0036749309468000002,0.14,True,-0.00012135544950764124,CaTiO2F,5.373490576138781,5.373490576138781,0.0
7180,perov_7180.cif,0.22189796622299998,0.0018374654734000001,1.48,True,0.004250771504567653,AlOsO2S,5.605816089542763,5.605816089542763,0.0
7181,perov_7181.cif,0.256429170343,0.0036749309468000002,1.36,True,9.01455512641106e-16,HfGeO2F,6.2131319725213965,6.2131319725213965,0.0
7182,perov_7182.cif,0.234131518426,0.0018374654734000001,2.38,True,2.499391011113857,SbAgN3,6.074990292032306,6.074990292032306,0.0
7183,perov_7183.cif,0.259643093215,0.0036749309468000002,0.58,True,-3.039458589761317e-16,GeHfO2F,6.2131319725213965,6.2131319725213965,0.0
7184,perov_7184.cif,0.0226171879833,0.0018374654734000001,2.18,True,3.999999999574104,AgNaO3,5.578565693812086,5.578565693812086,0.0
7185,perov_7185.cif,0.268091288774,0.0018374654734000001,2.06,True,3.6296194874047596,HgPtN3,6.450981347243668,6.450981347243668,0.0
7186,perov_7186.cif,0.164835094958,0.0036749309468000002,2.4,True,6.702984893577357e-14,BTeOFN,6.692092736802709,6.692092736802709,0.0
7187,perov_7187.cif,0.321261113067,0.0018374654734000001,1.5,True,-0.1302790475631244,TaIrO2N,6.181443377134782,6.181443377134782,0.0
7188,perov_7188.cif,0.312650611131,0.0018374654734000001,1.62,True,4.221374670320803,TlFeN3,6.117025939155848,6.117025939155848,0.0
7189,perov_7189.cif,0.365793166068,0.0018374654734000001,1.02,True,0.6328601543605628,NbFeO3,5.8640030929643165,5.8640030929643165,0.0
7190,perov_7190.cif,0.21730921975900003,0.0036749309468000002,1.76,True,-5.894471674944076e-09,SbAuOFN,6.9269098197073875,6.9269098197073875,0.0
7191,perov_7191.cif,0.329022727523,0.0018374654734000001,2.26,True,-0.000619646546788485,IrSbN3,6.30343451846242,6.30343451846242,0.0
7192,perov_7192.cif,0.20977122637200002,0.0036749309468000002,0.62,True,0.7896487800020147,SnGaOFN,6.0100724879531215,6.0100724879531215,0.0
7193,perov_7193.cif,0.23305322030900003,0.0018374654734000001,2.14,True,0.0005824427657508122,TeAgO2N,6.315619188472373,6.315619188472373,0.0
7194,perov_7194.cif,0.222268335572,0.0018374654734000001,1.44,True,0.0,CoGeN3,5.9726340240952185,5.9726340240952185,0.0
7195,perov_7195.cif,0.275882090936,0.0018374654734000001,1.1,True,1.9948377624144669,NbAlO2S,5.385041718397144,5.385041718397144,0.0
7196,perov_7196.cif,0.237702767584,0.0018374654734000001,1.52,True,-0.009639560184947528,PdRuO2N,6.0721064645357785,6.0721064645357785,0.0
7197,perov_7197.cif,0.134132210084,0.0036749309468000002,0.54,True,-5.576878714984181e-13,RbBiO2F,5.634036707722423,5.634036707722423,0.0
7198,perov_7198.cif,0.166825163266,0.0018374654734000001,1.9,True,0.7535184770942713,SiPdO2S,5.952089598680477,5.952089598680477,0.0
7199,perov_7199.cif,0.239405982078,0.0018374654734000001,1.9,True,0.6085189999795376,PdRhON2,5.975007474362156,5.975007474362156,0.0
7200,perov_7200.cif,0.20707186760200003,0.0036749309468000002,0.52,True,2.7731427841589392e-15,RbNbOFN,6.114308405674293,5.014308405674292,1.1
7201,perov_7201.cif,0.20669317228300002,0.0018374654734000001,1.9,True,-0.31362288756259205,SiCuO2N,6.148962804790089,6.148962804790089,0.0
7202,perov_7202.cif,0.10014782003799999,0.0018374654734000001,1.6,True,-8.524923750250542e-07,KCsO3,4.687366176550705,4.687366176550705,0.0
7203,perov_7203.cif,0.23469597975200002,0.0018374654734000001,1.48,True,0.8006625884486134,CsNiO2N,5.245709434938197,5.245709434938197,0.0
7204,perov_7204.cif,0.187312972665,0.0018374654734000001,1.36,True,2.096167099820068,HgGaO2N,5.8558368582986295,5.8558368582986295,0.0
7205,perov_7205.cif,0.322024609799,0.0018374654734000001,1.46,True,0.0009979978591481144,SiReO2N,6.014162214079941,6.014162214079941,0.0
7206,perov_7206.cif,0.17598771567699997,0.0018374654734000001,1.38,True,0.15416256751230506,PdPtO2S,6.14213147754919,6.14213147754919,0.0
7207,perov_7207.cif,0.246562697454,0.0018374654734000001,0.78,True,0.10183743846796746,TaYO3,5.615544765638999,5.615544765638999,0.0
7208,perov_7208.cif,0.32021341947099996,0.0036749309468000002,0.08,False,-1.900666722644021e-15,SrAlO2F,8.496550378982082,1.8965503789820823,6.6
7209,perov_7209.cif,0.181641366105,0.0036749309468000002,2.06,True,0.0,VPbOFN,6.031237682451898,6.031237682451898,0.0
7210,perov_7210.cif,0.222502326615,0.0018374654734000001,2.0,True,2.625114541228968,ScMgON2,5.489443335928161,5.489443335928161,0.0
7211,perov_7211.cif,0.27183363842700003,0.0036749309468000002,0.7,True,4.543401368509435,BaFeOFN,5.734402709307855,5.734402709307855,0.0
7212,perov_7212.cif,0.219393744152,0.0018374654734000001,1.32,True,2.4002490669128704,PbZnO2N,5.897755918694128,5.897755918694128,0.0
7213,perov_7213.cif,0.25312969321199996,0.0018374654734000001,0.76,True,0.026403995098828403,CdWN3,5.955139331457213,5.955139331457213,0.0
7214,perov_7214.cif,0.160116810617,0.0036749309468000002,1.14,True,1.994503340112104,SrMgOFN,5.32314475091741,5.32314475091741,0.0
7215,perov_7215.cif,0.147235409617,0.0018374654734000001,2.36,True,0.5788101650434053,LiPdN3,5.524664988031773,5.524664988031773,0.0
7216,perov_7216.cif,0.148256012685,0.0018374654734000001,0.98,True,-0.0004069697670299379,AsScO2S,5.742229350886309,5.742229350886309,0.0
7217,perov_7217.cif,0.09293980008330001,0.0018374654734000001,0.4,True,-0.4040822141135346,LiTiO3,5.362336997458943,5.362336997458943,0.0
7218,perov_7218.cif,0.247598626393,0.0018374654734000001,0.78,True,0.00018368027630089048,AlMoON2,5.488917300430414,5.488917300430414,0.0
7219,perov_7219.cif,0.287136860424,0.0036749309468000002,1.3,True,3.436139937917915e-06,CaIrOFN,5.823027094535103,5.823027094535103,0.0
7220,perov_7220.cif,0.29865558066500003,0.0018374654734000001,0.42,True,0.00015068592322720062,CaAsO3,5.488032768111467,5.488032768111467,0.0
7221,perov_7221.cif,0.249100670243,0.0036749309468000002,0.0,True,-4.9453143598484055e-08,TlNbO2F,6.645606213875738,6.645606213875738,0.0
7222,perov_7222.cif,0.307017763506,0.0036749309468000002,1.86,True,0.9423680944677991,ZrRhO2F,6.210436194381236,6.210436194381236,0.0
7223,perov_7223.cif,0.159844910546,0.0036749309468000002,0.96,True,1.077189264061687,TlBiOFN,6.634968365845608,6.634968365845608,0.0
7224,perov_7224.cif,0.22460190781300002,0.0036749309468000002,2.0,True,0.03700116386663765,SiIrOFN,6.794940610850599,6.794940610850599,0.0
7225,perov_7225.cif,0.245090269645,0.0036749309468000002,1.56,True,1.002913765934541e-14,PdBO2F,6.462069089949961,6.462069089949961,0.0
7226,perov_7226.cif,0.19976883542100002,0.0036749309468000002,2.26,True,3.3132446089032133,OsMgOFN,6.365375799937778,6.365375799937778,0.0
7227,perov_7227.cif,0.27789405349199997,0.0018374654734000001,1.18,True,-0.2371739399406714,BiSnON2,5.880778406590777,5.880778406590777,0.0
7228,perov_7228.cif,0.227744964924,0.0018374654734000001,1.74,True,-0.5502448938313989,PdBeO2N,6.176409621777467,6.176409621777467,0.0
7229,perov_7229.cif,0.1979897225,0.0036749309468000002,0.7,True,3.934814342410807,CoVO2F,6.196726488442483,6.196726488442483,0.0
7230,perov_7230.cif,0.305614783542,0.0018374654734000001,0.68,True,0.00012926381571531922,YHfO2S,5.209368502539988,5.209368502539988,0.0
7231,perov_7231.cif,0.289522862194,0.0036749309468000002,1.52,True,4.074447865961346,OsAlO2F,6.213995217738397,6.213995217738397,0.0
7232,perov_7232.cif,0.212869946545,0.0018374654734000001,0.7,True,0.0007923277467192237,InSnO2S,5.425529101564496,5.425529101564496,0.0
7233,perov_7233.cif,0.21653116522399998,0.0018374654734000001,1.08,True,0.4774564155321421,CdNiO2S,5.853927614575492,5.853927614575492,0.0
7234,perov_7234.cif,0.24837038880399998,0.0018374654734000001,1.36,True,0.5176360047095727,AgTeO2N,6.315619188472373,6.315619188472373,0.0
7235,perov_7235.cif,0.196803172713,0.0018374654734000001,0.16,False,-0.0001412582089439347,KSbO3,5.820262042219598,5.170262042219599,0.7
7236,perov_7236.cif,0.273438507408,0.0036749309468000002,0.2,True,-0.3184384392920619,TlWO2F,6.7735000846726345,6.7735000846726345,0.0
7237,perov_7237.cif,0.287411405787,0.0018374654734000001,1.18,True,-4.650365920081553,MnTeO2N,6.096041705382657,6.096041705382657,0.0
7238,perov_7238.cif,0.303870148327,0.0036749309468000002,1.64,True,1.2202253812703991,TaCuOFN,6.367491845484034,6.367491845484034,0.0
7239,perov_7239.cif,0.179294693484,0.0036749309468000002,1.22,True,1.7952612157247838e-15,AlZnO2F,6.0979118927569145,6.0979118927569145,0.0