,id,fermi level,fermi width,e_form,gap is direct,mu_b,formula,vbm,cbm,gap gllbsc
752,perov_752.cif,0.17363890866700002,0.0018374654734000001,0.52,True,-0.0001006056319958759,GaVO2S,5.269465472961303,5.269465472961303,0.0
753,perov_753.cif,0.239470542833,0.0018374654734000001,0.52,True,-0.00017477336727921486,GeMoON2,5.898441103812249,5.898441103812249,0.0
754,perov_754.cif,0.134256139982,0.0036749309468000002,1.3,True,-1.460206545512141,AgPdOFN,6.4610725777590945,6.4610725777590945,0.0
755,perov_755.cif,0.197131737483,0.0036749309468000002,1.56,True,3.0450465421305104,IrScO2F,6.3747870415676955,6.3747870415676955,0.0
756,perov_756.cif,0.252844727696,0.0018374654734000001,1.38,True,1.5906287768773693,TaTeO2S,6.0248648278973045,6.0248648278973045,0.0
757,perov_757.cif,0.18425891060400001,0.0036749309468000002,1.6,True,3.8233553749519302,MnPdOFN,6.2364380625442095,6.2364380625442095,0.0
758,perov_758.cif,0.23749279969,0.0018374654734000001,0.92,True,0.054645230298064014,ZnReO2S,5.751444643346161,5.751444643346161,0.0
759,perov_759.cif,0.052857131422,0.0036749309468000002,2.9,True,0.0,CuCsOFN,5.616948591752597,5.616948591752597,0.0
760,perov_760.cif,0.195015253479,0.0018374654734000001,1.64,True,0.005594492888064906,AlAuO2S,5.794450224386903,5.794450224386903,0.0
761,perov_761.cif,0.21916328781,0.0018374654734000001,1.12,True,1.8997069253609031,BaCdO2N,5.469310464172173,5.469310464172173,0.0
762,perov_762.cif,0.24921213057799999,0.0018374654734000001,1.42,True,0.02314364203347985,PtAlON2,5.894470589151506,5.894470589151506,0.0
763,perov_763.cif,0.230854761628,0.0018374654734000001,0.24,True,0.9960454173382304,SrHfO2N,4.895327454254828,4.895327454254828,0.0
764,perov_764.cif,0.41908556975100003,0.0036749309468000002,0.86,True,-0.0019012775808550137,LaBO2F,5.9799972381549615,5.9799972381549615,0.0
765,perov_765.cif,0.205443310856,0.0018374654734000001,3.42,True,-0.0008012949734771985,CdCsON2,5.216056989979274,5.216056989979274,0.0
766,perov_766.cif,0.27193024711999997,0.0018374654734000001,1.88,True,1.20215627788534,SiMnON2,5.883052690760042,5.883052690760042,0.0
767,perov_767.cif,0.256615944899,0.0036749309468000002,1.58,True,2.0799977403551355,TiSbOFN,6.249829793861674,6.249829793861674,0.0
768,perov_768.cif,0.186163809489,0.0036749309468000002,0.98,True,-6.787897063688689e-15,TlPtO2F,7.1005770482225214,7.1005770482225214,0.0
769,perov_769.cif,0.192628773241,0.0018374654734000001,1.0,True,0.010639352946348879,ZnRuO3,6.114930011405475,6.114930011405475,0.0
770,perov_770.cif,0.29227919178899997,0.0036749309468000002,1.28,True,0.023428694079402842,SbOsOFN,6.70140928205765,6.70140928205765,0.0
771,perov_771.cif,0.152540078912,0.0018374654734000001,3.02,True,1.234223965560581,PtCsO3,5.537794654168111,5.537794654168111,0.0
772,perov_772.cif,0.131316273569,0.0018374654734000001,2.32,True,0.40383640040058577,RbZnON2,5.290392978118997,5.290392978118997,0.0
773,perov_773.cif,0.392995126016,0.0018374654734000001,1.42,True,-0.00048627281634239765,TeBO3,6.316593266914987,6.316593266914987,0.0
774,perov_774.cif,0.36046746365000004,0.0018374654734000001,0.82,True,-0.21838538957274192,ZrWO2N,5.806784176161988,5.806784176161988,0.0
775,perov_775.cif,0.218810516744,0.0018374654734000001,1.68,True,0.003596626237634125,BReO2S,5.709477954333054,5.709477954333054,0.0
776,perov_776.cif,0.25601426574700004,0.0036749309468000002,1.7,True,2.67235151163588,RuBeOFN,6.6044665066418835,6.6044665066418835,0.0
777,perov_777.cif,0.33135323277,0.0018374654734000001,1.12,True,2.3271879839636145,HfMnO2S,5.3719941516681775,5.3719941516681775,0.0
778,perov_778.cif,0.28392642864,0.0018374654734000001,1.04,True,1.253834294910364,CaMnON2,5.041570953860775,5.041570953860775,0.0
779,perov_779.cif,0.250680600024,0.0036749309468000002,1.64,True,-4.037983920690308e-15,ZrAuOFN,6.540507720962831,6.540507720962831,0.0
780,perov_780.cif,0.223910102262,0.0018374654734000001,1.18,True,1.2248697282167205,OsYO2S,5.5988131743686536,5.5988131743686536,0.0
781,perov_781.cif,0.163157198509,0.0036749309468000002,1.5,True,0.9951779338349916,SnHgOFN,6.628020073268533,6.628020073268533,0.0
782,perov_782.cif,0.239648571811,0.0018374654734000001,1.16,True,-0.11855818790243412,OsHfO2N,5.853795147072482,5.853795147072482,0.0
783,perov_783.cif,0.14568007720599999,0.0018374654734000001,2.34,True,2.3313749185725956,TeNaO2N,5.779740150392501,5.779740150392501,0.0
784,perov_784.cif,0.23302075848,0.0036749309468000002,0.3,True,0.7292987423909415,RbMoO2F,5.575248496695638,5.575248496695638,0.0
785,perov_785.cif,0.152068136235,0.0018374654734000001,-0.32,False,0.00010823826057867336,LiTaO3,7.880691061437743,3.2206910614377438,4.7
786,perov_786.cif,0.182690779012,0.0018374654734000001,0.52,True,0.020912576558863805,PdNbO2S,5.748573226715517,5.748573226715517,0.0
787,perov_787.cif,0.102318512067,0.0036749309468000002,3.56,True,0.0,TiRbOFN,5.402104907366917,5.402104907366917,0.0
788,perov_788.cif,0.14300109265900002,0.0036749309468000002,3.04,True,0.0,OsCaOFN,5.7214002590549775,5.7214002590549775,0.0
789,perov_789.cif,0.14601084586100002,0.0018374654734000001,2.34,True,0.0,CsPbON2,5.082197085683759,5.082197085683759,0.0
790,perov_790.cif,0.150476088685,0.0018374654734000001,2.16,True,1.3492409979634274,HgHgO2N,6.457926143218224,6.457926143218224,0.0
791,perov_791.cif,0.279425144713,0.0036749309468000002,1.12,True,3.9974509600176584,TiCrOFN,5.926911334265176,5.926911334265176,0.0
792,perov_792.cif,0.169274458311,0.0036749309468000002,1.44,True,2.3855992860809607,RbPtOFN,5.945251536581835,5.945251536581835,0.0
793,perov_793.cif,0.286165508449,0.0018374654734000001,1.24,True,-0.001751891217465169,AlReO3,5.597664520154475,5.597664520154475,0.0
794,perov_794.cif,0.186939049642,0.0018374654734000001,1.5,True,2.5045347501139155,AgNiO3,6.084769274082217,6.084769274082217,0.0
795,perov_795.cif,0.17798556878600003,0.0018374654734000001,0.56,True,1.5002805745819128,NiTaON2,5.905002233614512,5.905002233614512,0.0
796,perov_796.cif,0.144840510404,0.0018374654734000001,1.2,True,0.004607363260024755,HgPbO3,6.131983909545765,6.131983909545765,0.0
797,perov_797.cif,0.233255648891,0.0018374654734000001,2.92,True,0.003957771085495665,ScBaON2,5.132737000567798,5.132737000567798,0.0
798,perov_798.cif,0.12503374198,0.0036749309468000002,3.48,True,0.0,IrCsO2F,5.858753294700746,5.858753294700746,0.0
799,perov_799.cif,0.140078635549,0.0036749309468000002,1.68,True,-0.7590134059828868,SrBaOFN,4.977244567511755,4.977244567511755,0.0
800,perov_800.cif,0.287860527702,0.0018374654734000001,1.42,True,1.2744671167314114,PtSbO3,6.492267003353763,6.492267003353763,0.0
801,perov_801.cif,0.217130677138,0.0018374654734000001,1.28,True,1.9999711491636205,AuAlO3,6.020230987609793,6.020230987609793,0.0
802,perov_802.cif,0.20037773088599997,0.0018374654734000001,1.9,True,0.000699439867606344,BCuO2S,5.837449394659162,5.837449394659162,0.0
803,perov_803.cif,0.342543530875,0.0018374654734000001,1.12,True,-0.0013549766398601845,BaSiON2,5.5096131805514,5.5096131805514,0.0
804,perov_804.cif,0.11644185306299999,0.0036749309468000002,1.38,True,1.9824696143011025,CuScOFN,6.111684396788603,6.111684396788603,0.0
805,perov_805.cif,0.21133040640599998,0.0018374654734000001,1.18,True,4.177519687097121,MnIrO2S,5.876150451116677,5.876150451116677,0.0
806,perov_806.cif,0.0825911049316,0.0036749309468000002,0.62,True,0.9915295970200352,NaLaO2F,5.510341273623582,5.510341273623582,0.0
807,perov_807.cif,0.178454214567,0.0018374654734000001,2.48,True,-0.5754435774777338,BPdO2N,6.01434495062703,6.01434495062703,0.0
808,perov_808.cif,0.206672675143,0.0018374654734000001,1.7,True,0.005698078460870447,AlBiON2,5.546795192107803,5.546795192107803,0.0
809,perov_809.cif,0.182041149333,0.0018374654734000001,1.66,True,-0.0007583226075676223,CdScON2,5.675482621511695,5.675482621511695,0.0
810,perov_810.cif,0.20978547456099997,0.0018374654734000001,1.24,True,1.2166006274674541,AgIrO2S,6.087807521174681,6.087807521174681,0.0
811,perov_811.cif,0.23747084990400003,0.0036749309468000002,1.12,True,-1.9857365531501784e-15,SbRhO2F,6.577338227374294,6.577338227374294,0.0
812,perov_812.cif,0.244983951608,0.0036749309468000002,0.48,True,4.50922253862089e-08,TlMoOFN,6.5657359591925335,6.5657359591925335,0.0
813,perov_813.cif,0.103855819331,0.0036749309468000002,3.44,True,0.0,OsBaOFN,5.951751004883138,5.951751004883138,0.0
814,perov_814.cif,0.166218896956,0.0036749309468000002,0.88,True,0.9618736062093164,GaSnOFN,6.0100724879531215,6.0100724879531215,0.0
815,perov_815.cif,0.260328668341,0.0018374654734000001,2.0,True,-0.006452630524408452,YTlON2,5.870098180117508,5.870098180117508,0.0
816,perov_816.cif,0.345029209633,0.0018374654734000001,1.06,True,0.24061000529232496,BiOsO3,6.119375761004712,6.119375761004712,0.0
817,perov_817.cif,0.195975178221,0.0018374654734000001,0.56,True,-0.058899979290977685,RhTaON2,5.8779139247603815,5.8779139247603815,0.0
818,perov_818.cif,0.168024814384,0.0018374654734000001,1.08,True,0.00047348310201300586,ZnCuO2S,5.880356719170238,5.880356719170238,0.0
819,perov_819.cif,0.252584303959,0.0018374654734000001,1.34,True,0.8293545731296952,AsNiON2,6.216106817977367,6.216106817977367,0.0
820,perov_820.cif,0.164011693354,0.0018374654734000001,1.5,True,-0.841297142948961,ZnPdO2N,6.0585525202471135,6.0585525202471135,0.0
821,perov_821.cif,0.22511013952300002,0.0036749309468000002,1.44,True,2.6274000474041097,RuRuOFN,6.4929346053070285,6.4929346053070285,0.0
822,perov_822.cif,0.210121424582,0.0018374654734000001,0.9,True,-0.0979773418703034,GeAlO2N,5.713173925899474,5.713173925899474,0.0
823,perov_823.cif,0.219819802054,0.0018374654734000001,2.0,True,-3.305026926192656e-05,ScCaON2,4.9340845711818,4.9340845711818,0.0
824,perov_824.cif,0.24404882779399997,0.0018374654734000001,1.92,True,0.00195824742895212,RhPbN3,5.775695089558304,5.775695089558304,0.0
825,perov_825.cif,0.24729884849800002,0.0018374654734000001,1.42,True,-0.013406580635856482,HfPbO3,5.631418222015416,5.631418222015416,0.0
826,perov_826.cif,0.134728568993,0.0036749309468000002,1.5,True,0.0,SrCaOFN,4.784610165072063,4.784610165072063,0.0
827,perov_827.cif,0.140178249737,0.0036749309468000002,1.88,True,4.7972662795219145,FeTlOFN,6.6187457551074695,6.6187457551074695,0.0
828,perov_828.cif,0.254936067427,0.0018374654734000001,2.26,True,0.0002323435394302465,TeBiN3,6.1320188297060625,6.1320188297060625,0.0
829,perov_829.cif,0.17815316438099998,0.0018374654734000001,1.08,True,-0.8661978470094306,KPtO3,5.649514113832844,5.649514113832844,0.0
830,perov_830.cif,0.234762339731,0.0018374654734000001,1.02,True,0.4509440032973906,GeOsO2S,6.024061619652794,6.024061619652794,0.0
831,perov_831.cif,0.224591964596,0.0036749309468000002,0.64,False,1.5059662569021389e-15,AlHfO2F,7.0317594468797076,4.531759446879708,2.5
832,perov_832.cif,0.26678776773400004,0.0018374654734000001,1.24,True,-0.9978788177680608,PtMoO2N,6.171757210317604,6.171757210317604,0.0
833,perov_833.cif,0.13034120350700001,0.0036749309468000002,1.06,True,2.0845134307634745,LiMnOFN,5.76737127971963,5.76737127971963,0.0
834,perov_834.cif,0.290739175851,0.0018374654734000001,1.82,True,-1.6768902522221174,RhIrO2N,6.240606730884669,6.240606730884669,0.0
835,perov_835.cif,0.112829581813,0.0018374654734000001,3.18,True,4.996809319670969,BGaN3,5.55190595142603,5.55190595142603,0.0
836,perov_836.cif,0.41903500711999997,0.0036749309468000002,0.86,True,-2.3851803870477513e-15,LaWOFN,5.968262924584619,5.968262924584619,0.0
837,perov_837.cif,0.27156684840900003,0.0036749309468000002,1.0,True,1.061307311251735,NiReOFN,6.3164844763196255,6.3164844763196255,0.0
838,perov_838.cif,0.215582039053,0.0018374654734000001,0.98,True,1.9992197906293845,CaBeO3,5.402574170266571,5.402574170266571,0.0
839,perov_839.cif,0.157020322154,0.0018374654734000001,3.8,True,-1.1993404575746829,HgCsN3,5.352338477850937,5.352338477850937,0.0
840,perov_840.cif,0.212615002159,0.0018374654734000001,0.98,True,0.9360098264068846,HgTiO2N,5.944602123255223,5.944602123255223,0.0
841,perov_841.cif,0.0762289378626,0.0018374654734000001,1.26,True,1.9999777105950358,RbYO2S,4.831448732505538,4.831448732505538,0.0
842,perov_842.cif,0.186844184403,0.0018374654734000001,1.12,True,2.9091310838941564,MoYO2S,5.3511500052527445,5.3511500052527445,0.0
843,perov_843.cif,0.38094188367700005,0.0036749309468000002,0.74,True,2.373487285711253,LaCoOFN,5.940884416833428,5.940884416833428,0.0
844,perov_844.cif,0.12370483039499999,0.0018374654734000001,1.14,True,0.0,NiInO3,5.662912611741363,5.662912611741363,0.0
845,perov_845.cif,0.22926238304699997,0.0018374654734000001,0.98,True,0.11876130732925105,YZnO2S,5.494222033491111,5.494222033491111,0.0
846,perov_846.cif,0.25787926744199996,0.0036749309468000002,1.06,True,0.07660856762717927,SnIrO2F,6.705174410386813,6.705174410386813,0.0
847,perov_847.cif,0.20630239332400002,0.0018374654734000001,1.72,True,0.0007445819467903902,BCrN3,5.721642160424344,5.721642160424344,0.0
848,perov_848.cif,0.219563013521,0.0018374654734000001,1.16,True,-3.3830532688062616,FeRuO2N,5.961733825630809,5.961733825630809,0.0
849,perov_849.cif,0.21194140222,0.0018374654734000001,1.38,True,2.3207739390818727,FeRhON2,5.86639980315712,5.86639980315712,0.0
850,perov_850.cif,0.259001405934,0.0036749309468000002,1.14,True,0.9200436895062792,ScInO2F,5.717810640392085,5.717810640392085,0.0
851,perov_851.cif,0.060228958514900004,0.0018374654734000001,3.48,True,5.999991091019895,LiSrN3,4.708037840200067,4.708037840200067,0.0
852,perov_852.cif,0.178813894256,0.0018374654734000001,2.46,True,-4.477598688305019,RuTlO2N,6.332596904453765,6.332596904453765,0.0
853,perov_853.cif,0.0671826532554,0.0036749309468000002,2.18,True,0.0,VNaO2F,5.707390769636371,5.707390769636371,0.0
854,perov_854.cif,0.231472767154,0.0018374654734000001,0.64,True,0.9977138856777756,PbHfO2N,5.591980762923728,5.591980762923728,0.0
855,perov_855.cif,0.281412255898,0.0036749309468000002,1.06,True,1.830148830108708,RhReOFN,6.287508554618384,6.287508554618384,0.0
856,perov_856.cif,0.298604329335,0.0036749309468000002,1.4,True,-5.791439380210471e-15,YRhOFN,6.006311488455897,6.006311488455897,0.0
857,perov_857.cif,0.263505780985,0.0018374654734000001,1.74,True,-1.5136979055666488,NiIrO2N,6.269366505989791,6.269366505989791,0.0
858,perov_858.cif,0.157238194532,0.0036749309468000002,1.04,True,-0.20850345950375665,HgCuO2F,6.729733088497635,6.729733088497635,0.0
859,perov_859.cif,0.225630827609,0.0018374654734000001,2.22,True,-3.261232562946512,ReInO2N,5.519834873362954,5.519834873362954,0.0
860,perov_860.cif,0.18601823150199998,0.0018374654734000001,0.82,True,4.6726606969187285,MnYO2S,5.300816763953902,5.300816763953902,0.0
861,perov_861.cif,0.267074119304,0.0036749309468000002,1.02,True,3.975225613351704,MoZrOFN,6.0476858222805445,6.0476858222805445,0.0
862,perov_862.cif,0.148908228917,0.0018374654734000001,2.84,True,2.287497201436839,RhCsO3,5.258471201455167,5.258471201455167,0.0
863,perov_863.cif,0.329577181662,0.0018374654734000001,1.58,True,1.485455602694696,FeBON2,5.863668703368165,5.863668703368165,0.0
864,perov_864.cif,0.322413465367,0.0018374654734000001,3.92,True,-0.0010203744498507076,HfCsN3,4.915416752422098,4.915416752422098,0.0
865,perov_865.cif,0.31100009649300003,0.0018374654734000001,1.28,True,0.8499196516839049,CdIrO2N,6.2778924212385085,6.2778924212385085,0.0
866,perov_866.cif,0.381754816068,0.0018374654734000001,1.7,True,7.729354037522286e-05,IrBON2,6.2940180902966905,6.09401809029669,0.2
867,perov_867.cif,0.0383717068179,0.0018374654734000001,1.7,True,0.0,KCaO2N,4.658782999576078,4.658782999576078,0.0
868,perov_868.cif,0.209585620836,0.0018374654734000001,1.2,True,-2.6182019074875584,RuSnO2N,6.030607542188793,6.030607542188793,0.0
869,perov_869.cif,0.11856834738600001,0.0036749309468000002,1.52,True,0.5062387656838432,AsCdO2F,6.735100111877237,6.735100111877237,0.0
870,perov_870.cif,0.144454005595,0.0036749309468000002,0.58,True,-2.2337590301974767e-11,InBiO2F,5.9600354035343655,5.9600354035343655,0.0
871,perov_871.cif,0.179943952555,0.0036749309468000002,1.48,True,2.675265040555608,CsPdOFN,5.609405661317546,5.609405661317546,0.0
872,perov_872.cif,0.25703033101100003,0.0018374654734000001,0.8,True,-1.4124394350366218,VNiO3,5.834827500261499,5.834827500261499,0.0
873,perov_873.cif,0.23080896795000003,0.0036749309468000002,0.42,True,1.0182347317415962e-14,InNbOFN,5.886272456930633,5.886272456930633,0.0
874,perov_874.cif,0.218555963066,0.0018374654734000001,1.22,True,0.020115912505247024,GaRuO2N,5.684566757813753,5.684566757813753,0.0
875,perov_875.cif,0.213471116839,0.0018374654734000001,1.64,True,-0.030822032391688126,GaRhON2,5.5936649109864565,5.5936649109864565,0.0
876,perov_876.cif,0.36553541139300005,0.0018374654734000001,1.02,True,0.6220972004431787,ZrCoO2S,5.602605396631111,5.602605396631111,0.0
877,perov_877.cif,0.141513090808,0.0018374654734000001,1.44,True,1.9995860650098436,SbLiO2S,5.525069103889849,5.525069103889849,0.0
878,perov_878.cif,0.17823867733100002,0.0018374654734000001,2.66,True,-0.0014355651424160527,TlLiON2,5.8023046486092,5.8023046486092,0.0
879,perov_879.cif,0.179479075882,0.0018374654734000001,0.78,True,0.9872775377299448,MgHfO2N,5.5511377196943466,5.5511377196943466,0.0
880,perov_880.cif,0.23818735383200001,0.0036749309468000002,1.72,True,1.58225029753784,AlCoOFN,6.013824096673564,6.013824096673564,0.0
881,perov_881.cif,0.210887319972,0.0036749309468000002,0.62,True,0.161558568825793,ZnWO2F,6.4948731574478895,6.4948731574478895,0.0
882,perov_882.cif,0.256733959538,0.0018374654734000001,1.96,True,0.0027313817132004203,PtCaN3,5.4272049420787205,5.4272049420787205,0.0
883,perov_883.cif,0.128014922364,0.0018374654734000001,1.8,True,0.004333996690533618,NaAlON2,5.155166992723672,5.155166992723672,0.0
884,perov_884.cif,0.115019800452,0.0018374654734000001,1.58,True,1.9970899999266545,KBaO2N,4.846351442616832,4.846351442616832,0.0
885,perov_885.cif,0.30213756316,0.0036749309468000002,0.78,True,-6.0707790338087204e-15,CdReOFN,6.325074468827398,6.325074468827398,0.0
886,perov_886.cif,0.266557321927,0.0018374654734000001,0.88,True,-0.12456837151994582,CuReON2,5.9000709869728425,5.9000709869728425,0.0
887,perov_887.cif,0.237120787503,0.0018374654734000001,0.82,True,0.6954438664806271,VMnO2S,5.430566741724373,5.430566741724373,0.0
888,perov_888.cif,0.291509324608,0.0018374654734000001,1.24,True,4.528831970596059e-05,AsTeON2,6.497441864937443,6.497441864937443,0.0
889,perov_889.cif,0.27887736716600003,0.0018374654734000001,1.5,True,1.047686927232636,CoScN3,5.602264779336278,5.602264779336278,0.0
890,perov_890.cif,0.415051624614,0.0036749309468000002,0.56,True,-0.6371565651592233,LaHfO2F,5.711634402284316,5.711634402284316,0.0
891,perov_891.cif,0.157306086062,0.0036749309468000002,1.02,True,1.233669114581332,PdAsO2F,6.741170513904777,6.741170513904777,0.0
892,perov_892.cif,0.231029447434,0.0018374654734000001,1.46,True,-0.9153451142423956,TiBiO2N,5.667050151792606,5.667050151792606,0.0
893,perov_893.cif,0.234019208281,0.0018374654734000001,1.38,True,2.007227984242685,AuMnON2,6.113874366373332,6.113874366373332,0.0
894,perov_894.cif,0.329830131588,0.0018374654734000001,1.58,True,2.5035794291804447,WNiO3,6.073766002644343,6.073766002644343,0.0
895,perov_895.cif,0.16143265980000002,0.0018374654734000001,3.68,True,-3.4629236855392582,ReRbO2N,5.2179140208884025,5.2179140208884025,0.0
896,perov_896.cif,0.289414673274,0.0018374654734000001,1.46,True,0.6575736809038092,AsCrN3,5.968764011352544,5.968764011352544,0.0
897,perov_897.cif,0.144639838849,0.0018374654734000001,1.1,True,1.4340989519421186,RbLaO2N,4.930255573537592,4.930255573537592,0.0
898,perov_898.cif,0.27307876141,0.0018374654734000001,1.44,True,-0.5391663605165462,ReAsO2S,5.956074424428255,5.956074424428255,0.0
899,perov_899.cif,0.233379219476,0.0018374654734000001,0.66,True,0.3343840914769771,BiLaO3,5.5570811481758335,5.5570811481758335,0.0
900,perov_900.cif,0.201211902881,0.0018374654734000001,0.88,True,-0.3983190948575165,InHfON2,5.306351002566316,5.306351002566316,0.0