,id,fermi level,fermi width,e_form,gap is direct,mu_b,formula,vbm,cbm,gap gllbsc
1493,perov_1493.cif,0.240729429951,0.0018374654734000001,1.04,True,-0.0003766063021067538,ZnSbO2N,6.163752938279531,6.163752938279531,0.0
1494,perov_1494.cif,0.0329797514116,0.0018374654734000001,4.18,True,1.6318162386035997,BRbO2N,5.288828720686805,5.288828720686805,0.0
1495,perov_1495.cif,0.170560920014,0.0036749309468000002,2.34,True,0.0,IrAuO2F,7.111341756096366,7.111341756096366,0.0
1496,perov_1496.cif,0.167574453934,0.0018374654734000001,1.4,True,2.9999053041185015,KNbN3,5.1772092444104025,5.1772092444104025,0.0
1497,perov_1497.cif,0.260781283147,0.0018374654734000001,1.42,True,0.20160907413352194,CdRuN3,5.981965369621276,5.981965369621276,0.0
1498,perov_1498.cif,0.257300595426,0.0018374654734000001,1.94,True,0.9209739001956956,SiPdN3,6.054998491133526,6.054998491133526,0.0
1499,perov_1499.cif,0.242343669683,0.0018374654734000001,2.24,True,4.16644247178721,OsBiO3,6.119375761004712,6.119375761004712,0.0
1500,perov_1500.cif,0.0272585424138,0.0036749309468000002,2.02,True,0.0,RbSrOFN,4.844011816913113,4.844011816913113,0.0
1501,perov_1501.cif,0.25204875699,0.0018374654734000001,1.54,True,-0.9041838018858376,TiIrO2S,5.788261427341378,5.788261427341378,0.0
1502,perov_1502.cif,0.315393210341,0.0036749309468000002,0.94,True,0.6864022808646055,ZrScOFN,5.863076940314932,5.863076940314932,0.0
1503,perov_1503.cif,0.163904544278,0.0018374654734000001,2.62,True,3.997516539525012,AsMgN3,5.978360144539736,5.978360144539736,0.0
1504,perov_1504.cif,0.156336133087,0.0036749309468000002,1.4,True,0.0,CsInOFN,5.218157520993578,5.218157520993578,0.0
1505,perov_1505.cif,0.194103567474,0.0036749309468000002,0.82,True,1.0040261403991728,AgCrOFN,6.233632646175742,6.233632646175742,0.0
1506,perov_1506.cif,0.17563672398299998,0.0036749309468000002,1.22,True,0.3043218317702525,AsZnO2F,6.741170513904777,6.741170513904777,0.0
1507,perov_1507.cif,0.20449789486900002,0.0018374654734000001,1.92,True,0.5529871223137626,ScAgON2,5.6780426056932045,5.6780426056932045,0.0
1508,perov_1508.cif,0.171002719346,0.0036749309468000002,1.56,True,1.261664750932599,SrAgOFN,5.506030546696718,5.506030546696718,0.0
1509,perov_1509.cif,0.241870374621,0.0036749309468000002,0.78,True,6.997617637136201,MnCrOFN,6.016905619718622,6.016905619718622,0.0
1510,perov_1510.cif,0.21428852767999998,0.0018374654734000001,1.84,True,1.0253286091169789,CrTlON2,6.0533504354575465,6.0533504354575465,0.0
1511,perov_1511.cif,0.303565495578,0.0018374654734000001,1.52,True,1.7196665417910972,HfLiO2N,5.312378954974875,5.312378954974875,0.0
1512,perov_1512.cif,0.145002379285,0.0018374654734000001,0.94,True,-8.958543084051031e-05,ZnAsO2S,6.081395431609674,6.081395431609674,0.0
1513,perov_1513.cif,0.297825156941,0.0036749309468000002,1.52,True,2.7271129420476976,TaWO2F,6.389331818499652,6.389331818499652,0.0
1514,perov_1514.cif,0.0549301261878,0.0018374654734000001,2.9,True,2.1842118013776286,ZnRbO2N,5.327703488562246,5.327703488562246,0.0
1515,perov_1515.cif,0.17505911995700002,0.0018374654734000001,2.34,True,0.985839247457207,BSbO2N,6.118777750521502,6.118777750521502,0.0
1516,perov_1516.cif,0.147942775201,0.0018374654734000001,2.64,True,4.407152293348591,AgTlN3,6.227470937360157,6.227470937360157,0.0
1517,perov_1517.cif,0.190840757048,0.0018374654734000001,2.86,True,1.1176804629253383,IrYN3,5.7967828862621955,5.7967828862621955,0.0
1518,perov_1518.cif,0.152040981144,0.0036749309468000002,0.86,True,2.004192473701776,VMgO2F,6.029411015953839,6.029411015953839,0.0
1519,perov_1519.cif,0.185305213044,0.0018374654734000001,0.74,True,1.987878949745904,KGeO2N,5.399325529184941,5.399325529184941,0.0
1520,perov_1520.cif,0.158182367267,0.0018374654734000001,1.64,True,2.369190490361988,CrZnO2S,5.6657402173583575,5.6657402173583575,0.0
1521,perov_1521.cif,0.20258748289700002,0.0036749309468000002,0.6,True,-5.2010371216257795e-15,SrPbO2F,5.400128021034321,5.400128021034321,0.0
1522,perov_1522.cif,0.247828107114,0.0036749309468000002,0.94,True,2.0262105314631347,VAlOFN,5.80386804579373,5.80386804579373,0.0
1523,perov_1523.cif,0.239833538963,0.0018374654734000001,1.18,True,0.1573779236727333,TeRhO2S,6.082529549121907,6.082529549121907,0.0
1524,perov_1524.cif,0.23958856577799997,0.0018374654734000001,0.98,True,2.485272949760933,GeCoO3,6.099893367727063,6.099893367727063,0.0
1525,perov_1525.cif,0.318795403336,0.0018374654734000001,1.24,True,0.8933891648901096,YRhN3,5.551015937601599,5.551015937601599,0.0
1526,perov_1526.cif,0.18672238915,0.0018374654734000001,1.82,True,0.3655925652639382,SiCuO3,6.192328381202304,6.192328381202304,0.0
1527,perov_1527.cif,0.17378788383699997,0.0018374654734000001,0.82,True,5.1786225576606695,KFeO2N,5.266149117938428,5.266149117938428,0.0
1528,perov_1528.cif,0.249319839995,0.0018374654734000001,1.56,True,0.8851652881696491,PtNiO2N,6.3224651912212035,6.3224651912212035,0.0
1529,perov_1529.cif,0.199927064549,0.0036749309468000002,1.5,True,3.3640689756265405,CrRhOFN,6.193816039957674,6.193816039957674,0.0
1530,perov_1530.cif,0.12017701732899999,0.0018374654734000001,1.84,True,0.754986387721587,CuAuO3,6.435284493960184,6.435284493960184,0.0
1531,perov_1531.cif,0.19710331642,0.0018374654734000001,0.4,True,-2.0956264135798315,CoTaO2N,5.919367928230701,5.919367928230701,0.0
1532,perov_1532.cif,0.247884242618,0.0018374654734000001,1.38,True,-0.3222900193915287,BaLaON2,5.030383632864383,5.030383632864383,0.0
1533,perov_1533.cif,0.25210444708,0.0036749309468000002,0.46,False,4.542650639432685e-15,NaSiO2F,8.335294944931562,3.735294944931562,4.6
1534,perov_1534.cif,0.231506371633,0.0036749309468000002,1.4,True,-4.897774848019171e-09,TeZnOFN,6.741281993154796,6.741281993154796,0.0
1535,perov_1535.cif,0.17213268239,0.0036749309468000002,2.52,True,0.0,OsPbO2F,6.457431805838766,6.457431805838766,0.0
1536,perov_1536.cif,0.182296042882,0.0018374654734000001,1.42,True,2.9986955172386978,PbLiO3,5.492628235381536,5.492628235381536,0.0
1537,perov_1537.cif,0.167964593361,0.0018374654734000001,0.2,False,-9.694423740039673e-06,NaSbO3,6.4479858440953,4.9079858440952995,1.5
1538,perov_1538.cif,0.310311094023,0.0036749309468000002,0.44,True,9.050066982912028e-10,BiTaO2F,6.302796310266478,6.302796310266478,0.0
1539,perov_1539.cif,0.22461548524900002,0.0018374654734000001,2.58,True,0.6553654841841698,OsKN3,5.3894629603508255,5.3894629603508255,0.0
1540,perov_1540.cif,0.254619809731,0.0018374654734000001,0.86,True,1.836783922743194,WNbO2S,5.735596631053013,5.735596631053013,0.0
1541,perov_1541.cif,0.17432209505600002,0.0036749309468000002,2.1,True,0.0,BeRuO2F,6.6510445241138045,6.6510445241138045,0.0
1542,perov_1542.cif,0.112209617458,0.0036749309468000002,1.72,True,3.984543016442665,RhYOFN,6.006311488455897,6.006311488455897,0.0
1543,perov_1543.cif,0.258031810615,0.0018374654734000001,0.86,True,-0.3868556785256103,NbScO2N,5.599975981172165,5.599975981172165,0.0
1544,perov_1544.cif,0.162150045494,0.0036749309468000002,0.76,True,-1.9826341372197245e-15,HgAsO2F,6.959810435805832,6.959810435805832,0.0
1545,perov_1545.cif,0.216128619876,0.0018374654734000001,3.5,True,-0.8042389297227448,TiBaN3,5.129929826480397,5.129929826480397,0.0
1546,perov_1546.cif,0.23956417372900002,0.0018374654734000001,1.24,True,1.6069968562201495,FeZrN3,5.634379950195976,5.634379950195976,0.0
1547,perov_1547.cif,0.279026543795,0.0036749309468000002,1.68,True,4.0374890964484385,RuBO2F,6.476525764896986,6.476525764896986,0.0
1548,perov_1548.cif,0.24649494486200002,0.0018374654734000001,1.12,True,0.4998963112436278,MoSnON2,5.8194155756573975,5.8194155756573975,0.0
1549,perov_1549.cif,0.20689213944499998,0.0018374654734000001,1.14,True,3.6645293988052856,MoBiO3,5.848685536705094,5.848685536705094,0.0
1550,perov_1550.cif,0.15009735816199998,0.0018374654734000001,0.58,True,0.19736415429862225,RbBiO3,5.280663837754376,5.280663837754376,0.0
1551,perov_1551.cif,0.228768569236,0.0018374654734000001,0.58,True,-7.003608830622127e-05,CsTeO3,5.521794979947939,5.521794979947939,0.0
1552,perov_1552.cif,0.171951426743,0.0018374654734000001,2.88,True,3.5792894417127687,CoMgN3,5.733510222652713,5.733510222652713,0.0
1553,perov_1553.cif,0.17158277269699998,0.0036749309468000002,1.44,True,-0.664040390125404,PbAgOFN,6.289592919966433,6.289592919966433,0.0
1554,perov_1554.cif,0.253924627415,0.0036749309468000002,1.0,True,-7.509497691845026e-17,MgGeOFN,6.288018969449387,6.288018969449387,0.0
1555,perov_1555.cif,0.241117111351,0.0018374654734000001,1.3,True,0.5570780045529168,AsAlO2N,5.877343220611497,5.877343220611497,0.0
1556,perov_1556.cif,0.260459407052,0.0036749309468000002,1.34,True,4.226638711461661,CrOsO2F,6.399978222365612,6.399978222365612,0.0
1557,perov_1557.cif,0.221958805335,0.0018374654734000001,1.0,True,0.00914047019939801,IrHfO2S,5.7747766880740965,5.7747766880740965,0.0
1558,perov_1558.cif,0.270041969201,0.0018374654734000001,1.3,True,0.002723733868673861,SnRhN3,5.892614481656334,5.892614481656334,0.0
1559,perov_1559.cif,0.196287432425,0.0018374654734000001,0.86,True,0.007586037950623846,NaTeO2N,5.779740150392501,5.779740150392501,0.0
1560,perov_1560.cif,0.21915248620000002,0.0036749309468000002,1.46,True,2.364578048770897,RhAsOFN,6.64821243554854,6.64821243554854,0.0
1561,perov_1561.cif,0.244860834104,0.0018374654734000001,1.26,True,0.4077375118953395,GeNiON2,6.042474985726504,6.042474985726504,0.0
1562,perov_1562.cif,0.011701909463299999,0.0018374654734000001,3.62,True,5.999999999841269,LiKON2,4.925486486676856,4.925486486676856,0.0
1563,perov_1563.cif,0.108502589731,0.0018374654734000001,0.64,True,0.9472479714178164,LiVO2N,5.370301541256224,5.370301541256224,0.0
1564,perov_1564.cif,0.23637731758400002,0.0018374654734000001,1.04,True,-4.057623793254444,CrTeO3,6.139034055601607,6.139034055601607,0.0
1565,perov_1565.cif,0.215939584867,0.0036749309468000002,1.34,True,1.7505482833507533,NiAsOFN,6.678850657558462,6.678850657558462,0.0
1566,perov_1566.cif,0.17050426124200002,0.0018374654734000001,1.36,True,2.036381716993976,NbPbO2S,5.596003609542893,5.596003609542893,0.0
1567,perov_1567.cif,0.15101049044099998,0.0036749309468000002,1.7,True,1.7624879246743215e-16,BeBeO2F,6.765292346821103,6.765292346821103,0.0
1568,perov_1568.cif,0.311608005826,0.0018374654734000001,1.38,True,0.001512788688907918,TePtON2,6.5623330452653965,6.5623330452653965,0.0
1569,perov_1569.cif,0.217524675297,0.0018374654734000001,1.06,True,-4.651835777420135,MnBiO3,5.793672446040274,5.793672446040274,0.0
1570,perov_1570.cif,0.21517768544100002,0.0018374654734000001,3.38,True,-2.176797572064093,NbCsO2N,5.1466625498236365,5.1466625498236365,0.0
1571,perov_1571.cif,0.163293384208,0.0018374654734000001,1.34,True,1.986731450569721,GaGaO2N,5.309881926571612,5.309881926571612,0.0
1572,perov_1572.cif,-0.0224335990569,0.0036749309468000002,3.98,True,0.0,BeKOFN,5.83389102661355,5.83389102661355,0.0
1573,perov_1573.cif,0.211043292558,0.0036749309468000002,1.12,True,3.557765441497884,MgFeOFN,6.132922597564638,6.132922597564638,0.0
1574,perov_1574.cif,0.391403042079,0.0036749309468000002,1.6,True,1.3667180098045617,TaBOFN,6.312541599041034,6.312541599041034,0.0
1575,perov_1575.cif,0.07872132068260002,0.0018374654734000001,1.8,True,-7.1543976396085416e-06,NaCsO3,4.843226508957524,4.843226508957524,0.0
1576,perov_1576.cif,0.11781579146400001,0.0018374654734000001,1.26,True,4.450885449941341,FeSrO2S,4.91345828500091,4.91345828500091,0.0
1577,perov_1577.cif,0.111804239723,0.0036749309468000002,1.88,True,1.921972980133955,CuAuOFN,6.817839743910433,6.817839743910433,0.0
1578,perov_1578.cif,0.25488223715799996,0.0036749309468000002,1.58,True,3.3520853857335915,TaSnO2F,6.3600217205820275,6.3600217205820275,0.0
1579,perov_1579.cif,0.06311408857890001,0.0018374654734000001,3.42,True,0.0,AlCsO2S,4.773818430819091,4.773818430819091,0.0
1580,perov_1580.cif,0.22465217994800002,0.0018374654734000001,1.88,True,-4.0308141322498166e-05,SnAgN3,5.930494830200332,5.930494830200332,0.0
1581,perov_1581.cif,0.196035478593,0.0018374654734000001,2.04,True,-0.8913678135131415,CdAuON2,6.331238406738987,6.331238406738987,0.0
1582,perov_1582.cif,0.180016497178,0.0018374654734000001,1.66,True,-0.047703675251776136,AlPbO2N,5.52479031135829,5.52479031135829,0.0
1583,perov_1583.cif,0.242377369604,0.0018374654734000001,0.8,True,0.9146796935631158,ZnCrO2N,5.845281928698197,5.845281928698197,0.0
1584,perov_1584.cif,0.215277505887,0.0018374654734000001,1.46,True,2.334377114417308,ZnCoON2,5.975007474362156,5.975007474362156,0.0
1585,perov_1585.cif,0.154678145326,0.0018374654734000001,1.58,True,3.286477009204102,NiCdO3,6.082025914412081,6.082025914412081,0.0
1586,perov_1586.cif,-0.0269205995645,0.0036749309468000002,2.8,True,0.0,AgRbOFN,5.6816671634592,5.6816671634592,0.0
1587,perov_1587.cif,0.248141808892,0.0018374654734000001,1.04,True,4.004901710289039,FeMnN3,5.658931555638576,5.658931555638576,0.0
1588,perov_1588.cif,0.26836316175,0.0018374654734000001,2.06,True,2.6495413764500384,RePtO3,6.249955127600492,6.249955127600492,0.0
1589,perov_1589.cif,0.07714125651710001,0.0036749309468000002,3.06,True,3.9716051904905263,MnRbOFN,5.4841305263891575,5.4841305263891575,0.0
1590,perov_1590.cif,0.177709456513,0.0018374654734000001,0.94,True,1.0011248842632041,GaZrON2,5.410320987056425,5.410320987056425,0.0
1591,perov_1591.cif,0.22963506905900002,0.0018374654734000001,1.6,True,1.0954835369853428,TeMgO2N,6.105842466144562,6.105842466144562,0.0
1592,perov_1592.cif,0.275480583251,0.0018374654734000001,1.22,True,2.1304416116869977,IrNbO3,6.194371318849076,6.194371318849076,0.0
1593,perov_1593.cif,0.159602630033,0.0036749309468000002,1.12,True,2.154715826346365,RbNiO2F,5.711390346632342,5.711390346632342,0.0
1594,perov_1594.cif,0.263509087666,0.0018374654734000001,1.72,True,0.6167574838450349,AlOsO3,5.824246723368431,5.824246723368431,0.0
1595,perov_1595.cif,0.118612968462,0.0036749309468000002,1.84,True,-1.9387628507716137,PtYOFN,6.325359287474107,6.325359287474107,0.0
1596,perov_1596.cif,0.20686891336399998,0.0018374654734000001,1.04,True,1.5875257273546526,CsBiO2N,5.174662861541962,5.174662861541962,0.0
1597,perov_1597.cif,0.182961647524,0.0036749309468000002,1.1,True,0.0019910861851251127,AuRuO2F,6.872041947004306,6.872041947004306,0.0
1598,perov_1598.cif,0.201965565472,0.0036749309468000002,0.98,True,-0.18547526347336746,AgSbOFN,6.573262334940622,6.573262334940622,0.0
1599,perov_1599.cif,0.370709490957,0.0018374654734000001,1.02,True,1.966726982814292,TaFeN3,5.770090496651276,5.770090496651276,0.0
1600,perov_1600.cif,0.23708419511,0.0036749309468000002,1.14,True,4.991933501304751,MnSbOFN,6.344727276679169,6.344727276679169,0.0
1601,perov_1601.cif,0.237985980248,0.0018374654734000001,1.46,True,1.4134748372469677,GaNiN3,5.580089663954881,5.580089663954881,0.0
1602,perov_1602.cif,0.399833004899,0.0018374654734000001,0.82,True,0.008388087691344028,BiReO3,5.881312075161984,5.881312075161984,0.0
1603,perov_1603.cif,0.233978184171,0.0018374654734000001,1.12,True,0.002029332728307409,AsOsO2S,6.19716433982676,6.19716433982676,0.0
1604,perov_1604.cif,0.23656354918400002,0.0018374654734000001,0.26,True,0.0,TlVO3,6.098906210112907,6.098906210112907,0.0
1605,perov_1605.cif,0.190122618626,0.0036749309468000002,0.66,True,7.2966492767140765e-16,PbPbO2F,6.168619421914852,6.168619421914852,0.0
1606,perov_1606.cif,0.232221961619,0.0018374654734000001,1.88,True,1.4519779447227332,BCoON2,5.931409509663384,5.931409509663384,0.0
1607,perov_1607.cif,0.22340676441799998,0.0018374654734000001,1.42,True,1.2809514631905403,BCrO2N,5.802630535160159,5.802630535160159,0.0
1608,perov_1608.cif,0.279148962353,0.0018374654734000001,1.3,True,0.11191907222073104,SiWO3,6.170053241180033,6.170053241180033,0.0
1609,perov_1609.cif,0.122091968518,0.0018374654734000001,2.22,True,-0.00040592003350250317,AuYON2,5.928789878295303,5.928789878295303,0.0
1610,perov_1610.cif,0.226200099595,0.0036749309468000002,1.64,True,0.7258894462117595,TiPdOFN,6.143160251209753,6.143160251209753,0.0
1611,perov_1611.cif,0.0223252398792,0.0036749309468000002,1.16,True,0.0,TlSrO2F,5.785336232933747,5.785336232933747,0.0
1612,perov_1612.cif,0.22589189702799997,0.0036749309468000002,2.44,True,0.2220482205160757,ZrCsOFN,5.388465703586327,5.388465703586327,0.0
1613,perov_1613.cif,0.09387001515910001,0.0018374654734000001,2.46,True,4.074855302954163,NaPbN3,5.319606876931009,5.319606876931009,0.0
1614,perov_1614.cif,0.26056650820599997,0.0018374654734000001,0.9,True,-2.0688857213347807,RhWO2N,6.003563368897388,6.003563368897388,0.0
1615,perov_1615.cif,0.288073480242,0.0018374654734000001,1.66,True,-0.009697859103848856,PdIrO2N,6.283550738152809,6.283550738152809,0.0
1616,perov_1616.cif,0.134628834074,0.0018374654734000001,1.84,True,-0.00015610178939797235,GeBaO3,5.549521149632908,5.549521149632908,0.0
1617,perov_1617.cif,0.332956108463,0.0018374654734000001,1.08,True,-0.002112268739564834,TlSiO2N,6.40413874193617,6.40413874193617,0.0
1618,perov_1618.cif,0.203409737415,0.0036749309468000002,0.44,True,2.000104415071142,CsCrO2F,5.450113508319134,5.450113508319134,0.0
1619,perov_1619.cif,0.18653886396299998,0.0018374654734000001,1.48,True,1.9999039615124483,AuSnO2N,6.338021767321511,6.338021767321511,0.0
1620,perov_1620.cif,0.279423856493,0.0036749309468000002,0.7,True,0.31088485610650096,SbZrOFN,6.317200306401057,6.317200306401057,0.0
1621,perov_1621.cif,0.175570597971,0.0018374654734000001,0.94,True,1.9999155011191192,PdHfO3,5.784953384288483,5.784953384288483,0.0
1622,perov_1622.cif,0.229974727104,0.0036749309468000002,1.96,True,-2.4016820858143784e-08,SiBeOFN,6.679079761931173,6.679079761931173,0.0
1623,perov_1623.cif,0.271318214384,0.0018374654734000001,1.78,True,0.0012979914294763974,AlInN3,5.205878066920186,5.205878066920186,0.0
1624,perov_1624.cif,0.124566557382,0.0036749309468000002,0.94,True,-0.0020187434672951287,ZnBiO2F,6.406908223781048,6.406908223781048,0.0
1625,perov_1625.cif,0.24858965790600002,0.0018374654734000001,1.68,True,-2.546182340016097,RuRuO3,6.128610081096491,6.128610081096491,0.0
1626,perov_1626.cif,0.15837214280099998,0.0036749309468000002,0.64,True,5.024118961036908,MnInO2F,5.842370074611894,5.842370074611894,0.0
1627,perov_1627.cif,0.248658837684,0.0018374654734000001,1.76,True,1.563776795768174,SiBeN3,6.172786456088986,6.172786456088986,0.0
1628,perov_1628.cif,0.26328934902,0.0018374654734000001,3.2,True,1.9088443244172064,BaCsN3,4.6842107700436655,4.6842107700436655,0.0
1629,perov_1629.cif,0.333938581663,0.0018374654734000001,1.88,True,-0.6394648729054544,TaRuO2N,5.973435061574129,5.973435061574129,0.0
1630,perov_1630.cif,0.20409486279599998,0.0036749309468000002,0.58,True,-4.930332781549586e-15,ZnNbOFN,6.3276146630539545,6.3276146630539545,0.0
1631,perov_1631.cif,0.291735809614,0.0018374654734000001,1.36,True,0.4803151241565332,TaRhON2,5.8779139247603815,5.8779139247603815,0.0
1632,perov_1632.cif,0.197611553301,0.0036749309468000002,1.02,True,0.0,NiVOFN,6.18168767324594,6.18168767324594,0.0
1633,perov_1633.cif,0.242852209721,0.0018374654734000001,1.58,True,4.5345622339709836e-05,PbPdON2,5.8564532665723315,5.8564532665723315,0.0
1634,perov_1634.cif,0.0961330595376,0.0036749309468000002,0.8,True,0.989587696592828,AgInO2F,6.052810386253665,6.052810386253665,0.0
1635,perov_1635.cif,0.254123123041,0.0036749309468000002,0.38,True,4.1853638735237935,PbFeO2F,6.221616867404486,6.221616867404486,0.0
1636,perov_1636.cif,0.159653454171,0.0018374654734000001,1.06,True,0.9904799584473718,PtGaO2S,5.7501225683905925,5.7501225683905925,0.0
1637,perov_1637.cif,0.248918202228,0.0018374654734000001,1.38,True,2.483913504992621,IrCoO2S,6.048922356045369,6.048922356045369,0.0
1638,perov_1638.cif,0.343427769795,0.0018374654734000001,1.66,True,0.0,WAlN3,5.583572868705923,5.583572868705923,0.0
1639,perov_1639.cif,0.256848800569,0.0018374654734000001,0.94,False,-0.0012623458954317554,AlGeO2N,6.323173925899473,5.1031739258994735,1.2
1640,perov_1640.cif,0.273285902632,0.0036749309468000002,0.82,True,-2.8007016843294896e-15,PdReOFN,6.3307753113155725,6.3307753113155725,0.0