,id,fermi level,fermi width,e_form,gap is direct,mu_b,formula,vbm,cbm,gap gllbsc
6505,perov_6505.cif,0.18186530025800002,0.0018374654734000001,2.22,True,0.6272656835343396,BRhO2N,5.973240790887443,5.973240790887443,0.0
6506,perov_6506.cif,0.199213892935,0.0018374654734000001,0.62,True,-0.0005028774736042212,BaBiO2S,5.222415125834101,5.222415125834101,0.0
6507,perov_6507.cif,0.242096533226,0.0018374654734000001,2.62,True,0.003099084043325817,BSiN3,6.01081685427361,6.01081685427361,0.0
6508,perov_6508.cif,0.243786611083,0.0018374654734000001,0.78,True,-0.01682044250787599,SnAlO2N,5.63663055130463,5.63663055130463,0.0
6509,perov_6509.cif,0.205234484867,0.0018374654734000001,0.8,True,0.044507819955232016,TlGeO2S,6.165128068489986,6.165128068489986,0.0
6510,perov_6510.cif,0.105466991185,0.0036749309468000002,1.34,True,1.2784369753691145,GaPbOFN,5.890822531258335,5.890822531258335,0.0
6511,perov_6511.cif,0.280097461862,0.0018374654734000001,0.84,True,0.3777498311291936,SbGeON2,6.161304512713626,6.161304512713626,0.0
6512,perov_6512.cif,0.25343703684,0.0018374654734000001,1.72,True,1.284698167632843,PtTeO3,6.655221183479855,6.655221183479855,0.0
6513,perov_6513.cif,0.230250940388,0.0018374654734000001,1.2,True,-0.13986816593043086,TlTiON2,5.962811048359134,5.962811048359134,0.0
6514,perov_6514.cif,0.249866437518,0.0018374654734000001,0.62,True,0.6456465991249195,SbTiO2S,5.6779064683408045,5.6779064683408045,0.0
6515,perov_6515.cif,0.248802772142,0.0036749309468000002,0.9,True,2.3030325311446496,CoWOFN,6.405311422339941,6.405311422339941,0.0
6516,perov_6516.cif,0.0527337242885,0.0018374654734000001,2.78,True,0.0,FeSrO3,5.1049111957503,5.1049111957503,0.0
6517,perov_6517.cif,0.272282599932,0.0018374654734000001,0.26,True,0.3534125851507425,InMoO3,5.5279263208031235,5.5279263208031235,0.0
6518,perov_6518.cif,0.233430479044,0.0018374654734000001,1.36,True,-2.549095534473693,MoBiO2N,5.807726530021447,5.807726530021447,0.0
6519,perov_6519.cif,0.278822512725,0.0036749309468000002,1.5,True,4.3354452722110595e-15,YPdOFN,6.047643220343192,6.047643220343192,0.0
6520,perov_6520.cif,0.429500670564,0.0018374654734000001,0.98,True,-1.747849491938405,NbSiO2N,6.011159635341593,6.011159635341593,0.0
6521,perov_6521.cif,0.196896235661,0.0018374654734000001,1.08,True,-0.4578646745690378,TeSbO2S,6.230729310098227,6.230729310098227,0.0
6522,perov_6522.cif,0.127697956188,0.0036749309468000002,1.42,True,3.0123867097068966,CrYOFN,5.83475665333415,5.83475665333415,0.0
6523,perov_6523.cif,0.275563319918,0.0018374654734000001,1.06,True,1.2817524977456785,MgOsO3,6.0082087174542895,6.0082087174542895,0.0
6524,perov_6524.cif,0.0866059474914,0.0036749309468000002,1.56,True,0.0,GaAgO2F,6.091366437333107,6.091366437333107,0.0
6525,perov_6525.cif,0.0773742054148,0.0018374654734000001,2.32,True,0.8340402585223217,CdKO3,5.396607146676709,5.396607146676709,0.0
6526,perov_6526.cif,0.24955493948399998,0.0018374654734000001,1.0,True,0.13895578376978793,SnOsO2S,5.943353065858345,5.943353065858345,0.0
6527,perov_6527.cif,0.198181461296,0.0018374654734000001,2.16,True,-0.9007771151496212,SiBaO2N,5.5484697420509805,5.5484697420509805,0.0
6528,perov_6528.cif,0.234218760882,0.0036749309468000002,1.2,True,-0.060112642175987475,GeIrO2F,6.796228218499037,6.796228218499037,0.0
6529,perov_6529.cif,0.055016543333999995,0.0036749309468000002,3.84,True,0.0,CrRbOFN,5.4841305263891575,5.4841305263891575,0.0
6530,perov_6530.cif,0.143225100112,0.0036749309468000002,0.5,False,-8.005703144086338e-16,LiNbOFN,6.351690133188344,5.3516901331883435,1.0
6531,perov_6531.cif,0.19454331270999997,0.0018374654734000001,1.98,True,1.7438408053029126,CdLaON2,5.562306209085016,5.562306209085016,0.0
6532,perov_6532.cif,0.215445089875,0.0018374654734000001,1.62,True,1.8677656806456573,FePdON2,5.906768749102363,5.906768749102363,0.0
6533,perov_6533.cif,0.105017830518,0.0036749309468000002,0.86,True,2.394260100230741e-15,LiBiO2F,5.925019716552726,5.925019716552726,0.0
6534,perov_6534.cif,0.0911810049522,0.0036749309468000002,1.68,True,0.0,CuLaOFN,5.989809560754235,5.989809560754235,0.0
6535,perov_6535.cif,0.215870606274,0.0018374654734000001,0.68,True,0.00012484134831567683,SrTeO2S,5.219111023036525,5.219111023036525,0.0
6536,perov_6536.cif,0.0586622295301,0.0036749309468000002,0.54,True,0.9964808965287549,NaScO2F,5.622460353939003,5.622460353939003,0.0
6537,perov_6537.cif,0.146109009324,0.0018374654734000001,1.36,True,-0.661365526523138,CaCaO2N,4.570818168459176,4.570818168459176,0.0
6538,perov_6538.cif,0.19335815343499999,0.0018374654734000001,1.0,True,2.0853202823276007,BeFeO3,6.106908435944558,6.106908435944558,0.0
6539,perov_6539.cif,0.18398059774099998,0.0036749309468000002,1.54,True,-1.6501825936076394e-08,AlGaOFN,5.6687463589915765,5.6687463589915765,0.0
6540,perov_6540.cif,0.295261869529,0.0018374654734000001,1.56,True,-1.7111326457243137,TaHfO2N,5.651093849124572,5.651093849124572,0.0
6541,perov_6541.cif,0.122658210961,0.0018374654734000001,2.48,True,5.152176504959134,GaCdN3,5.587678209226507,5.587678209226507,0.0
6542,perov_6542.cif,0.214428172238,0.0036749309468000002,0.76,True,7.442052979905893,FeFeO2F,6.2750696383140125,6.2750696383140125,0.0
6543,perov_6543.cif,0.31838864731,0.0018374654734000001,1.34,True,0.0006400888033688548,TeVN3,5.971667461108291,5.971667461108291,0.0
6544,perov_6544.cif,0.17302425985999997,0.0018374654734000001,2.26,True,-0.00028934478329395934,TlHgON2,6.477707432365977,6.477707432365977,0.0
6545,perov_6545.cif,0.10775662764699999,0.0018374654734000001,2.8,True,2.9999996817196366,SiCaO2N,5.333727199522269,5.333727199522269,0.0
6546,perov_6546.cif,0.155159422173,0.0036749309468000002,1.28,True,1.99662785374856,CsYOFN,5.248110648319421,5.248110648319421,0.0
6547,perov_6547.cif,0.187004401662,0.0018374654734000001,1.6,True,4.000949630267313e-06,SbHgO2S,6.168200976345089,6.168200976345089,0.0
6548,perov_6548.cif,0.293440995205,0.0018374654734000001,1.14,True,0.3230577948223292,ZrGaO2S,5.281123696415809,5.281123696415809,0.0
6549,perov_6549.cif,0.307638745032,0.0018374654734000001,1.9,True,5.261373421160009,IrCoO3,6.28461862632758,6.28461862632758,0.0
6550,perov_6550.cif,0.291786758329,0.0018374654734000001,1.14,True,0.00023665882234169547,TeAsO2N,6.5432650908412295,6.5432650908412295,0.0
6551,perov_6551.cif,0.2612562737,0.0018374654734000001,1.48,True,0.6867017281268293,PdGeN3,6.013734008439901,6.013734008439901,0.0
6552,perov_6552.cif,0.194058368491,0.0018374654734000001,0.1,True,0.9999725952330324,RbTaO2N,5.241128593861301,5.241128593861301,0.0
6553,perov_6553.cif,0.227284389811,0.0018374654734000001,1.44,True,0.900831746231228,OsTeO2S,6.240973063432037,6.240973063432037,0.0
6554,perov_6554.cif,0.0732081248752,0.0018374654734000001,2.9,True,-2.5873163409222184,TeRbO2S,5.385595207027087,5.385595207027087,0.0
6555,perov_6555.cif,0.183440409244,0.0018374654734000001,1.5,True,0.0006855701184562688,SnHgO3,6.256115779379952,6.256115779379952,0.0
6556,perov_6556.cif,0.15908590533199998,0.0018374654734000001,1.62,True,-0.1446054684542739,CaBaO2N,4.7548450371410365,4.7548450371410365,0.0
6557,perov_6557.cif,0.21500361678000002,0.0018374654734000001,1.58,True,3.483641028182677,NiNiO3,6.073766002644343,6.073766002644343,0.0
6558,perov_6558.cif,0.319762229625,0.0018374654734000001,0.94,True,0.00015714751234696686,TlReN3,6.1018846000718785,6.1018846000718785,0.0
6559,perov_6559.cif,0.36605998146200003,0.0018374654734000001,1.24,True,-2.8697225772596626,NbReO3,5.849488055738192,5.849488055738192,0.0
6560,perov_6560.cif,0.26022043653099997,0.0036749309468000002,0.76,True,3.558190695032509,FeGeO2F,6.4337607873940765,6.4337607873940765,0.0
6561,perov_6561.cif,0.23016770259,0.0036749309468000002,1.18,True,4.385103382854886,CrSbOFN,6.344727276679169,6.344727276679169,0.0
6562,perov_6562.cif,0.306537679825,0.0018374654734000001,0.66,True,0.00030874964344107525,BiMoN3,5.726667029554126,5.726667029554126,0.0
6563,perov_6563.cif,0.299626965368,0.0018374654734000001,0.34,False,2.704042178703096e-05,LaGaO2S,6.137535488207523,4.0375354882075225,2.1
6564,perov_6564.cif,0.045978633902,0.0018374654734000001,1.6,True,0.9969071582977662,LiBaO3,5.0982044022383475,5.0982044022383475,0.0
6565,perov_6565.cif,0.171331199343,0.0018374654734000001,1.56,True,1.8154550502329727,CsRhO2S,5.061259226749608,5.061259226749608,0.0
6566,perov_6566.cif,0.167098693363,0.0036749309468000002,1.64,True,1.6398331247405868,CuBeOFN,6.5985854051412325,6.5985854051412325,0.0
6567,perov_6567.cif,0.194990862302,0.0018374654734000001,1.7,True,4.725643363541494,CoZrON2,5.7396674083133,5.7396674083133,0.0
6568,perov_6568.cif,0.28288273446999995,0.0018374654734000001,1.32,True,1.9986498059242648,BaBO2N,5.434295995444867,5.434295995444867,0.0
6569,perov_6569.cif,0.06407415842860001,0.0018374654734000001,2.78,True,1.1949098560251905,AlSrO2N,4.836507641355453,4.836507641355453,0.0
6570,perov_6570.cif,0.25501023281,0.0018374654734000001,1.98,True,0.00782045481652462,CdBeON2,6.127632639721718,6.127632639721718,0.0
6571,perov_6571.cif,0.245356971249,0.0036749309468000002,1.24,True,0.0,VNbOFN,6.064968111024648,6.064968111024648,0.0
6572,perov_6572.cif,0.259753806292,0.0036749309468000002,1.84,True,0.0,IrRuO2F,6.7664190505802955,6.7664190505802955,0.0
6573,perov_6573.cif,0.12614136890799998,0.0018374654734000001,2.82,True,-0.6890005870601427,TeKO2N,5.593741783518863,5.593741783518863,0.0
6574,perov_6574.cif,0.299808886972,0.0018374654734000001,0.66,True,0.8717305723570288,TeVON2,6.0137826616411845,6.0137826616411845,0.0
6575,perov_6575.cif,0.178055975191,0.0036749309468000002,1.68,True,0.0,VBiO2F,6.1409703556030655,6.1409703556030655,0.0
6576,perov_6576.cif,0.218922084025,0.0018374654734000001,1.78,True,0.4869141291564353,ScCsO3,4.999367954033501,4.999367954033501,0.0
6577,perov_6577.cif,0.35358221945600005,0.0018374654734000001,0.98,True,2.2210574304149726,BiMnON2,5.712809100991282,5.712809100991282,0.0
6578,perov_6578.cif,0.24384911205600002,0.0018374654734000001,0.68,True,3.4300289469639216,InMnO2S,5.270562821134972,5.270562821134972,0.0
6579,perov_6579.cif,0.154679872466,0.0018374654734000001,1.54,True,3.645848390547794,AgHfN3,5.661716464248821,5.661716464248821,0.0
6580,perov_6580.cif,0.263511953801,0.0018374654734000001,0.94,True,-1.6643651881710722,TiZrO2S,5.361177214900797,5.361177214900797,0.0
6581,perov_6581.cif,0.12687622872,0.0036749309468000002,0.74,True,0.1863832198555784,TlPbO2F,6.608646556113932,6.608646556113932,0.0
6582,perov_6582.cif,0.143314834001,0.0036749309468000002,1.8,True,0.0,CsZnOFN,5.609405661317546,5.609405661317546,0.0
6583,perov_6583.cif,0.274893876636,0.0018374654734000001,1.48,True,2.9782529772097472,WAlO2S,5.488676181169037,5.488676181169037,0.0
6584,perov_6584.cif,0.155741299354,0.0018374654734000001,2.84,True,2.9314981068720307,KAgN3,5.286403559573979,5.286403559573979,0.0
6585,perov_6585.cif,0.162041236439,0.0036749309468000002,1.04,True,-1.4341943919246304e-15,AsInO2F,6.270983369951181,6.270983369951181,0.0
6586,perov_6586.cif,0.27938649263500004,0.0018374654734000001,0.56,True,0.003389027781793175,YNbN3,5.471303186212014,5.471303186212014,0.0
6587,perov_6587.cif,0.184757208902,0.0018374654734000001,2.38,True,-0.21819135268218245,SbCsO3,5.3865929259553,5.3865929259553,0.0
6588,perov_6588.cif,0.1373281317,0.0018374654734000001,1.38,True,0.8322321132666951,SiYO2S,5.568722729040284,5.568722729040284,0.0
6589,perov_6589.cif,0.11114636873099999,0.0036749309468000002,0.94,True,0.9934619411097289,PbSrO2F,5.400128021034321,5.400128021034321,0.0
6590,perov_6590.cif,0.330488455235,0.0018374654734000001,0.22,True,0.9995659150712088,BaCrO2N,5.28153812894606,5.28153812894606,0.0
6591,perov_6591.cif,0.31466947281,0.0018374654734000001,1.18,True,4.470493905994335,BaCoON2,5.3987523923605725,5.3987523923605725,0.0
6592,perov_6592.cif,0.18708563892400001,0.0018374654734000001,1.96,True,0.003713557600072194,PtAgO2N,6.333919007621972,6.333919007621972,0.0
6593,perov_6593.cif,0.09663094416439999,0.0036749309468000002,3.54,True,0.0,RuCsOFN,5.621954792743237,5.621954792743237,0.0
6594,perov_6594.cif,0.20530777102000003,0.0018374654734000001,1.88,True,-0.10141252969577363,AsBaON2,5.6293064596288565,5.6293064596288565,0.0
6595,perov_6595.cif,0.284701528424,0.0018374654734000001,2.16,True,0.0011343545432573874,OsZnN3,6.087716514624022,6.087716514624022,0.0
6596,perov_6596.cif,0.12236255457699999,0.0018374654734000001,1.52,True,2.0001380190774767,CdMgO2S,5.669738988369527,5.669738988369527,0.0
6597,perov_6597.cif,0.282514174879,0.0018374654734000001,1.96,True,0.04024436728224145,ZrYN3,5.369069921886736,5.369069921886736,0.0
6598,perov_6598.cif,0.209456619338,0.0018374654734000001,1.38,True,1.0462258713163717,VHfON2,5.4674413819522645,5.4674413819522645,0.0
6599,perov_6599.cif,0.227257929336,0.0018374654734000001,0.82,True,0.0006811532287294143,KTeO2N,5.593741783518863,5.593741783518863,0.0
6600,perov_6600.cif,0.230504183363,0.0018374654734000001,1.62,True,3.9999625777757077,PbGaN3,5.444281372926954,5.444281372926954,0.0
6601,perov_6601.cif,0.185659363156,0.0018374654734000001,0.86,True,3.514123376676785,CrInO2S,5.270562821134972,5.270562821134972,0.0
6602,perov_6602.cif,0.11760860329299999,0.0036749309468000002,1.38,True,2.4531391490460197,TlAgOFN,6.73824947641072,6.73824947641072,0.0
6603,perov_6603.cif,0.145143957729,0.0018374654734000001,0.86,True,-0.0002623950673704798,AuHfO2S,5.864920179843785,5.864920179843785,0.0
6604,perov_6604.cif,0.294518378026,0.0018374654734000001,0.96,True,-0.5394986558380938,MoCrO2S,5.518201777989159,5.518201777989159,0.0
6605,perov_6605.cif,0.335078681922,0.0018374654734000001,1.92,True,-2.777110594010188,WOsO2N,6.159949897046517,6.159949897046517,0.0
6606,perov_6606.cif,0.289792773244,0.0018374654734000001,1.0,True,-0.05413888197850518,PbCrN3,5.6107272185600925,5.6107272185600925,0.0
6607,perov_6607.cif,0.287225023822,0.0036749309468000002,1.92,True,3.4458647502490365,OsNiOFN,6.572163065856063,6.572163065856063,0.0
6608,perov_6608.cif,0.228295866939,0.0018374654734000001,1.74,True,0.002592453424483665,ScPbN3,5.4911064141638635,5.4911064141638635,0.0
6609,perov_6609.cif,0.232862062775,0.0036749309468000002,1.1,True,1.9135815192585173,SrNiOFN,5.496073825920371,5.496073825920371,0.0
6610,perov_6610.cif,0.286487629814,0.0018374654734000001,1.3,True,0.9678527708671822,ScNiON2,5.667774830332784,5.667774830332784,0.0
6611,perov_6611.cif,0.281597756762,0.0018374654734000001,0.54,False,-1.2420471213039635e-05,ZnSiO3,7.344012780401014,5.024012780401013,2.3
6612,perov_6612.cif,0.06726498738749999,0.0018374654734000001,1.84,True,3.0000173511858637,CdNaO3,5.57605055947383,5.57605055947383,0.0
6613,perov_6613.cif,0.16209908179500002,0.0018374654734000001,2.9,True,-3.6716543945290696,FeCsO2N,5.162010722650688,5.162010722650688,0.0
6614,perov_6614.cif,0.13900588575300002,0.0018374654734000001,2.16,False,1.323440645961682e-07,AlNaON2,5.755166992723671,4.555166992723672,1.2
6615,perov_6615.cif,0.259440122423,0.0018374654734000001,1.98,True,2.476655074357657,FeAuN3,6.178186524405122,6.178186524405122,0.0
6616,perov_6616.cif,0.17268013523200001,0.0018374654734000001,2.84,True,4.408880013072757,AuTlN3,6.562514530820428,6.562514530820428,0.0
6617,perov_6617.cif,0.223331743162,0.0018374654734000001,1.84,True,8.675001265778806e-05,AsCaON2,5.411435291899075,5.411435291899075,0.0
6618,perov_6618.cif,0.420878255672,0.0018374654734000001,0.14,True,2.7182681858383795,LaFeO3,5.5434939900559606,5.5434939900559606,0.0
6619,perov_6619.cif,0.156114506788,0.0018374654734000001,1.22,True,3.5885825209876785,FePbO2S,5.612691789447561,5.612691789447561,0.0
6620,perov_6620.cif,0.176806473448,0.0018374654734000001,2.64,True,2.953473758732671,GeHgN3,6.208780600308026,6.208780600308026,0.0
6621,perov_6621.cif,0.175795844822,0.0018374654734000001,1.6,True,-1.7104431531594724,CoGaO2N,5.633114247536801,5.633114247536801,0.0
6622,perov_6622.cif,0.44165286015699995,0.0036749309468000002,0.86,True,2.309862764753111e-15,LaSiOFN,6.062877625844593,6.062877625844593,0.0
6623,perov_6623.cif,0.208879496385,0.0018374654734000001,2.12,True,4.361736501730386,KRhN3,5.252637269388353,5.252637269388353,0.0
6624,perov_6624.cif,0.20399142814100002,0.0036749309468000002,1.26,True,3.4604872945259166e-08,TeInOFN,6.271087073680604,6.271087073680604,0.0
6625,perov_6625.cif,0.235045762592,0.0018374654734000001,2.26,True,1.3997190404847115,SbPbN3,5.9164188829787925,5.9164188829787925,0.0
6626,perov_6626.cif,0.271232715174,0.0018374654734000001,1.96,True,0.15723396410411894,AlGeN3,5.633434113406162,5.633434113406162,0.0
6627,perov_6627.cif,0.108762059747,0.0036749309468000002,2.62,True,-3.0305165393512826e-15,BeAuO2F,6.990085936508808,6.990085936508808,0.0
6628,perov_6628.cif,0.16722947386700002,0.0018374654734000001,1.48,True,2.3311264473463678,NbSrO2S,4.8988491315162435,4.8988491315162435,0.0
6629,perov_6629.cif,0.29281189688299997,0.0036749309468000002,0.48,True,2.2631386219735335e-12,BiGaO2F,5.998000483355112,5.998000483355112,0.0
6630,perov_6630.cif,0.249479213851,0.0018374654734000001,1.66,True,-8.444723693917821e-05,TeBiO2N,6.218815980758665,6.218815980758665,0.0
6631,perov_6631.cif,0.148137786862,0.0018374654734000001,0.88,True,0.996468159048714,CuZrO3,5.868848048427537,5.868848048427537,0.0
6632,perov_6632.cif,0.24363282883200002,0.0018374654734000001,1.16,True,2.5975221197540823,MoSbO2S,5.818852339030803,5.818852339030803,0.0
6633,perov_6633.cif,0.1124370425,0.0018374654734000001,1.58,True,0.0,CsMgO2N,5.080657852836084,5.080657852836084,0.0
6634,perov_6634.cif,0.0632962560174,0.0036749309468000002,1.46,True,0.0,RbAgO2F,5.721737136127407,5.721737136127407,0.0
6635,perov_6635.cif,0.162967254187,0.0018374654734000001,2.3,True,-0.4386119650093002,ZnLaON2,5.567319562164931,5.567319562164931,0.0
6636,perov_6636.cif,0.25942774463199997,0.0018374654734000001,1.14,True,1.612490654070712,VVN3,5.488348074752281,5.488348074752281,0.0
6637,perov_6637.cif,0.187351961064,0.0036749309468000002,1.32,True,-1.7923175828240273e-15,MgTeOFN,6.514434859473623,6.514434859473623,0.0
6638,perov_6638.cif,0.19655431794,0.0018374654734000001,1.52,True,3.945484569266618,PbScN3,5.4911064141638635,5.4911064141638635,0.0
6639,perov_6639.cif,0.146803283456,0.0018374654734000001,0.74,True,1.9952333596850664,NaGeO2N,5.578859331336209,5.578859331336209,0.0
6640,perov_6640.cif,0.120509989385,0.0036749309468000002,0.72,True,-0.7723253647482173,SrSrO2F,4.727375876028326,4.727375876028326,0.0
6641,perov_6641.cif,0.12224346420700001,0.0018374654734000001,2.24,True,2.408478968464064,CuTlO2N,6.326957895592058,6.326957895592058,0.0
6642,perov_6642.cif,0.194383345745,0.0018374654734000001,1.6,True,0.4255534190525072,BWO2S,5.81645083085016,5.81645083085016,0.0
6643,perov_6643.cif,0.07171247494630001,0.0036749309468000002,2.9,True,0.0,OsSrO2F,5.652959933748614,5.652959933748614,0.0
6644,perov_6644.cif,0.194612110637,0.0018374654734000001,1.14,True,1.0856562820293906e-05,SnLiO2S,5.3936536820632135,5.3936536820632135,0.0
6645,perov_6645.cif,0.294540655359,0.0018374654734000001,0.6,True,1.3788560662177869e-05,CaTeO3,6.0218285297681,5.0318285297681,1.0
6646,perov_6646.cif,0.17827064106600002,0.0036749309468000002,0.96,True,-1.2040642115001694,AlVO2F,5.844799840507179,5.844799840507179,0.0
6647,perov_6647.cif,0.338729779674,0.0018374654734000001,1.48,True,3.419095686732242,MoAsO2N,6.110728212351093,6.110728212351093,0.0
6648,perov_6648.cif,0.213129854293,0.0018374654734000001,0.34,True,0.10838627935781807,GaTaO2N,5.579710156346248,5.579710156346248,0.0
6649,perov_6649.cif,0.102118660716,0.0018374654734000001,3.54,True,-4.015832556553319,MoRbO2S,5.0295850947485015,5.0295850947485015,0.0
6650,perov_6650.cif,0.260957405908,0.0018374654734000001,2.3,True,0.0,IrRhO3,6.28461862632758,6.28461862632758,0.0
6651,perov_6651.cif,0.298935842639,0.0018374654734000001,1.5,True,0.00500801991693578,TeTiN3,5.9210528078022895,5.9210528078022895,0.0
6652,perov_6652.cif,0.14437447329199998,0.0018374654734000001,0.82,True,1.7139432666142012,NaFeO2N,5.441254650792222,5.441254650792222,0.0