,id,fermi level,fermi width,e_form,gap is direct,mu_b,formula,vbm,cbm,gap gllbsc
5769,perov_5769.cif,0.23501575655499998,0.0018374654734000001,0.94,True,4.22511326978798,CsMnO2N,5.072502661737586,5.072502661737586,0.0
5770,perov_5770.cif,0.218322558559,0.0036749309468000002,1.54,True,1.2149086075127682,TiRhO2F,6.144204280049716,6.144204280049716,0.0
5771,perov_5771.cif,0.327847193247,0.0018374654734000001,0.92,True,2.3333354838802056,VReN3,5.608026035486872,5.608026035486872,0.0
5772,perov_5772.cif,0.228902864401,0.0018374654734000001,1.22,True,7.539952726176581e-06,SiScO2S,5.620135045814898,5.620135045814898,0.0
5773,perov_5773.cif,0.138182507338,0.0036749309468000002,1.9,True,0.7702389701001807,MgTlOFN,6.514434859473623,6.514434859473623,0.0
5774,perov_5774.cif,0.14466276460799998,0.0018374654734000001,2.64,True,6.073636181712958,OsCaO3,5.400367235636797,5.400367235636797,0.0
5775,perov_5775.cif,0.31642430211100003,0.0018374654734000001,1.04,True,0.0,AsReO2N,6.144816540022097,6.144816540022097,0.0
5776,perov_5776.cif,0.220924561974,0.0036749309468000002,2.38,True,2.6067051915917467,TaPbOFN,6.190171977725643,6.190171977725643,0.0
5777,perov_5777.cif,0.248973683138,0.0018374654734000001,1.48,True,0.468189521761797,CuTeO2N,6.326957895592058,6.326957895592058,0.0
5778,perov_5778.cif,0.26027347298000003,0.0018374654734000001,1.48,True,1.0631177607775764,MoSnN3,5.778661549823321,5.778661549823321,0.0
5779,perov_5779.cif,0.164239417666,0.0018374654734000001,2.1,True,4.000016156561448,RbSnN3,5.21744054886641,5.21744054886641,0.0
5780,perov_5780.cif,0.18602944276299999,0.0018374654734000001,0.76,True,-0.00012229428627050134,GeSbO2S,6.014173898511844,6.014173898511844,0.0
5781,perov_5781.cif,0.211540582694,0.0018374654734000001,2.02,True,1.7545607241721082,ReRbO3,5.254713373294461,5.254713373294461,0.0
5782,perov_5782.cif,0.199431093317,0.0036749309468000002,2.02,True,2.324896709928058,TaAgO2F,6.400906770889157,6.400906770889157,0.0
5783,perov_5783.cif,0.259832474405,0.0018374654734000001,0.32,True,0.9985820477969848,GeVO3,5.886932446075817,5.886932446075817,0.0
5784,perov_5784.cif,0.198632632124,0.0018374654734000001,2.08,True,2.788199270112642,IrHgO3,6.5331004796310435,6.5331004796310435,0.0
5785,perov_5785.cif,0.186887199941,0.0018374654734000001,1.38,True,0.5766169525147826,NiAlN3,5.583572868705923,5.583572868705923,0.0
5786,perov_5786.cif,0.17097398817099999,0.0018374654734000001,2.34,True,3.6658640604437664,PdLaON2,5.567319562164931,5.567319562164931,0.0
5787,perov_5787.cif,0.26293893591999995,0.0036749309468000002,1.48,True,1.4540189225219073e-13,TeIrO2F,7.040943456855584,7.040943456855584,0.0
5788,perov_5788.cif,0.269285460547,0.0018374654734000001,1.86,True,3.512444996804902,BaCuN3,5.405093464208712,5.405093464208712,0.0
5789,perov_5789.cif,0.344498797526,0.0036749309468000002,0.56,True,-3.2821352231998766,YCrO2F,5.875906290033813,5.875906290033813,0.0
5790,perov_5790.cif,0.156640972869,0.0018374654734000001,1.08,True,1.7180473091527195,GaHfO2N,5.377813587807538,5.377813587807538,0.0
5791,perov_5791.cif,0.21675206631299998,0.0018374654734000001,1.4,True,0.7336308390011723,CdBO2S,5.8243608113537375,5.8243608113537375,0.0
5792,perov_5792.cif,0.26607789782900004,0.0018374654734000001,1.88,True,0.0023493513716985547,NbLiON2,5.446256069887959,5.446256069887959,0.0
5793,perov_5793.cif,0.26762871544399996,0.0036749309468000002,1.42,True,2.397919598114754,WVOFN,6.18168767324594,6.18168767324594,0.0
5794,perov_5794.cif,0.282968473935,0.0018374654734000001,0.78,True,1.6622020708366745,SnCoO3,6.018168843129987,6.018168843129987,0.0
5795,perov_5795.cif,0.17709588063200002,0.0018374654734000001,2.58,True,0.0011022706812582328,PdKN3,5.288782680051259,5.288782680051259,0.0
5796,perov_5796.cif,0.261608738921,0.0018374654734000001,1.2,True,2.115490029898784,PtCoO2S,6.1001539795062145,6.1001539795062145,0.0
5797,perov_5797.cif,0.253158439969,0.0018374654734000001,0.52,True,3.665203457428987,FeVO3,5.741729025355713,5.741729025355713,0.0
5798,perov_5798.cif,0.20371413721200002,0.0018374654734000001,1.24,True,0.34227085355578524,IrGaO2S,5.701830653913157,5.701830653913157,0.0
5799,perov_5799.cif,0.0774792332228,0.0036749309468000002,1.76,True,2.056950006879031,NaAuOFN,6.228165693069376,6.228165693069376,0.0
5800,perov_5800.cif,0.09283941484210001,0.0036749309468000002,1.98,True,0.0,KBeOFN,5.83389102661355,5.83389102661355,0.0
5801,perov_5801.cif,0.19938261276099997,0.0018374654734000001,1.46,True,5.625966914932384,MnSnN3,5.724307109023474,5.724307109023474,0.0
5802,perov_5802.cif,0.26418755505999997,0.0018374654734000001,0.9,True,1.9022220948627936e-05,GeAsO2N,6.3158471764456525,6.3158471764456525,0.0
5803,perov_5803.cif,0.060532693771400005,0.0018374654734000001,2.86,True,2.332972458073261,GeRbO2S,5.198413301241965,5.198413301241965,0.0
5804,perov_5804.cif,0.177633085132,0.0018374654734000001,1.66,True,1.9486855777941656,MgRhON2,5.7739458186327335,5.7739458186327335,0.0
5805,perov_5805.cif,0.22605654609099998,0.0018374654734000001,1.16,True,1.1863184807973948,MgRuO2N,5.867777384653714,5.867777384653714,0.0
5806,perov_5806.cif,0.22483985164099998,0.0036749309468000002,0.8,True,3.9982737079100663,VVOFN,5.938503593681331,5.938503593681331,0.0
5807,perov_5807.cif,0.22373670995099998,0.0018374654734000001,1.48,True,-0.15413003964604588,WCdO2N,6.039432798657242,6.039432798657242,0.0
5808,perov_5808.cif,0.291647610977,0.0018374654734000001,0.92,True,0.5609183300331395,PbIrO3,6.159921212022676,6.159921212022676,0.0
5809,perov_5809.cif,0.3759703262,0.0036749309468000002,1.02,True,0.0,LaRuO2F,6.0374288780894085,6.0374288780894085,0.0
5810,perov_5810.cif,0.108028499731,0.0018374654734000001,1.24,True,1.9998766699899375,GaLaO3,5.285771317487177,5.285771317487177,0.0
5811,perov_5811.cif,0.157961939897,0.0018374654734000001,2.06,True,0.007535956520776209,AuAgO2N,6.378765392137453,6.378765392137453,0.0
5812,perov_5812.cif,0.214327745614,0.0036749309468000002,1.22,True,0.012500300227547,PdAlOFN,6.055207525697981,6.055207525697981,0.0
5813,perov_5813.cif,0.20799147686900002,0.0018374654734000001,1.4,True,0.5148264631155719,WCdO3,6.082025914412081,6.082025914412081,0.0
5814,perov_5814.cif,0.16803666629500003,0.0036749309468000002,0.34,True,-0.9966604146906696,AgVO2F,6.2365618043187805,6.2365618043187805,0.0
5815,perov_5815.cif,0.17038422849399998,0.0018374654734000001,1.66,True,0.0,NiCdO2N,6.039432798657242,6.039432798657242,0.0
5816,perov_5816.cif,0.119677260664,0.0036749309468000002,1.34,True,0.0002573589717176361,PdMgO2F,6.29051774975994,6.29051774975994,0.0
5817,perov_5817.cif,0.29253239213000004,0.0018374654734000001,1.1,True,-5.668130820894209e-05,SnTeON2,6.231332414413885,6.231332414413885,0.0
5818,perov_5818.cif,0.278118730684,0.0036749309468000002,1.2,True,2.5657079753506937,NbMoO2F,6.206304163978977,6.206304163978977,0.0
5819,perov_5819.cif,0.223285411379,0.0036749309468000002,1.82,True,2.646211745187139,MoPdOFN,6.295655378634418,6.295655378634418,0.0
5820,perov_5820.cif,0.31568980965300003,0.0018374654734000001,1.44,True,-0.0008089654993700817,YBiO2N,5.578935926843884,5.578935926843884,0.0
5821,perov_5821.cif,0.18767866980599998,0.0036749309468000002,0.74,True,1.014367040383374e-14,PbTlO2F,6.608646556113932,6.608646556113932,0.0
5822,perov_5822.cif,0.239491873772,0.0036749309468000002,1.02,True,3.1446877681525507,RuHfO2F,6.185880342894532,6.185880342894532,0.0
5823,perov_5823.cif,0.293028631642,0.0018374654734000001,0.04,True,0.9995297811352588,PbVO3,5.692819396633349,5.692819396633349,0.0
5824,perov_5824.cif,0.302286860556,0.0036749309468000002,1.52,True,-5.143080972648403e-15,ScOsOFN,6.219666359072421,6.219666359072421,0.0
5825,perov_5825.cif,0.40148347200900003,0.0018374654734000001,1.24,True,0.0006820053660110402,ZrBeN3,5.850326971701055,5.850326971701055,0.0
5826,perov_5826.cif,0.338740962574,0.0018374654734000001,1.0,True,0.2065331747310424,SrOsON2,5.224449439089767,5.224449439089767,0.0
5827,perov_5827.cif,0.10878635441,0.0018374654734000001,3.0,True,-0.0001626042246085079,BGaON2,5.5910607828038446,5.5910607828038446,0.0
5828,perov_5828.cif,0.312262684725,0.0018374654734000001,1.1,True,5.1109043113000565,ReTaO3,5.878447333385738,5.878447333385738,0.0
5829,perov_5829.cif,0.11488876590999998,0.0018374654734000001,3.3,True,0.0,CsCaN3,4.502917660904761,4.502917660904761,0.0
5830,perov_5830.cif,0.205985641369,0.0018374654734000001,0.82,True,2.994910991926485,HgMnO2S,5.849500143928938,5.849500143928938,0.0
5831,perov_5831.cif,0.347498384062,0.0018374654734000001,1.52,True,0.08901695312613889,ReBeON2,6.0067678843906,6.0067678843906,0.0
5832,perov_5832.cif,0.26130577828,0.0018374654734000001,1.34,True,-0.0006447769883055177,NbZnON2,5.889206192090838,5.889206192090838,0.0
5833,perov_5833.cif,0.30072792465,0.0018374654734000001,1.46,True,-0.0003859943019927092,OsOsON2,6.247356700538551,6.247356700538551,0.0
5834,perov_5834.cif,0.36221866568000005,0.0018374654734000001,0.42,False,-0.0005762817038398637,LaSnO2N,6.473265726996468,4.663265726996468,1.8
5835,perov_5835.cif,0.14121827209499999,0.0036749309468000002,0.84,True,0.0,SnCdO2F,6.459257122090047,6.459257122090047,0.0
5836,perov_5836.cif,0.163594898251,0.0018374654734000001,1.72,True,-2.134406151570817,VCdO3,5.842762471794997,5.842762471794997,0.0
5837,perov_5837.cif,0.09885583680299999,0.0018374654734000001,0.18,True,0.988995642927925,NaTiO3,5.3040764697422285,5.3040764697422285,0.0
5838,perov_5838.cif,0.256101143709,0.0018374654734000001,1.88,True,3.265960564198814,CrCaN3,5.006264261938403,5.006264261938403,0.0
5839,perov_5839.cif,0.216510723197,0.0036749309468000002,0.88,True,1.827310873788361e-15,MgSnO2F,6.247526127471319,6.247526127471319,0.0
5840,perov_5840.cif,0.15526773611199998,0.0018374654734000001,2.46,True,-1.4488766361533192,RhCdO2N,6.011727809822098,6.011727809822098,0.0
5841,perov_5841.cif,0.160530066798,0.0018374654734000001,2.36,True,2.047622331657759,NaPdN3,5.464640804953889,5.464640804953889,0.0
5842,perov_5842.cif,0.16906839065999998,0.0018374654734000001,2.62,True,0.018554678302063362,AlTlO2N,5.918891078723054,5.918891078723054,0.0
5843,perov_5843.cif,0.12276598445699999,0.0018374654734000001,1.48,True,0.0009870672391727175,ZnGaON2,5.632157063585037,5.632157063585037,0.0
5844,perov_5844.cif,0.170232592476,0.0018374654734000001,0.94,True,2.2287094228530218,CoSnO2S,5.79246541789554,5.79246541789554,0.0
5845,perov_5845.cif,0.33671447159400003,0.0036749309468000002,1.5,True,1.05110756561324,TaFeOFN,6.243354591131082,6.243354591131082,0.0
5846,perov_5846.cif,0.168546949307,0.0018374654734000001,0.7,True,0.997461431903808,ZnZrO2N,5.8199218312658205,5.8199218312658205,0.0
5847,perov_5847.cif,0.337552716539,0.0036749309468000002,1.66,True,-6.275933106075219e-15,HfReO2F,6.0448828230792016,6.0448828230792016,0.0
5848,perov_5848.cif,0.22700985012299998,0.0018374654734000001,1.74,True,0.0,RuGaN3,5.605226220793009,5.605226220793009,0.0
5849,perov_5849.cif,0.210511387953,0.0018374654734000001,1.64,True,0.917901589372942,RuBiON2,5.934493065677249,5.934493065677249,0.0
5850,perov_5850.cif,0.18168706216299998,0.0018374654734000001,1.2,True,0.9967345980149036,YBaO3,5.157771298792426,5.157771298792426,0.0
5851,perov_5851.cif,0.12465218519400001,0.0036749309468000002,1.78,True,3.042256498415058,BMnO2F,6.234594079567883,6.234594079567883,0.0
5852,perov_5852.cif,0.26514849672699997,0.0018374654734000001,0.58,True,0.1577122007633527,PbMoO2S,5.567739519440443,5.567739519440443,0.0
5853,perov_5853.cif,0.176225871412,0.0018374654734000001,1.52,True,1.3679290953101209,HgZnO3,6.299166510356223,6.299166510356223,0.0
5854,perov_5854.cif,0.23717554058899998,0.0018374654734000001,2.14,True,2.95890742210802,TlLaN3,5.765493727599883,5.765493727599883,0.0
5855,perov_5855.cif,0.220430050173,0.0018374654734000001,0.98,True,2.6561887504550965,NbLaO3,5.5270115555170785,5.5270115555170785,0.0
5856,perov_5856.cif,0.15891042733400002,0.0018374654734000001,1.68,True,2.1068863906743727,RbAuO2N,5.611813206406497,5.611813206406497,0.0
5857,perov_5857.cif,0.21084332709000003,0.0018374654734000001,1.44,True,-1.863880521656708,NbTlO2S,5.99518424670895,5.99518424670895,0.0
5858,perov_5858.cif,0.21933060066799998,0.0018374654734000001,0.98,True,1.3122030324843514,GaCoO2N,5.633114247536801,5.633114247536801,0.0
5859,perov_5859.cif,0.22785134903999998,0.0018374654734000001,0.8,True,1.1272405231076221,GaCrON2,5.433896263726826,5.433896263726826,0.0
5860,perov_5860.cif,-0.00456209136992,0.0018374654734000001,3.66,True,0.0,CoKO2S,5.1633650615353055,5.1633650615353055,0.0
5861,perov_5861.cif,0.286181690941,0.0018374654734000001,1.18,True,1.9917592267500088,RuCrN3,5.776592569146043,5.776592569146043,0.0
5862,perov_5862.cif,0.279643196917,0.0018374654734000001,1.62,True,0.08744035113446103,SiSbO3,6.291391684428318,6.291391684428318,0.0
5863,perov_5863.cif,0.277807627494,0.0018374654734000001,1.42,True,0.05064882653592661,AuOsO3,6.5489838610082565,6.5489838610082565,0.0
5864,perov_5864.cif,0.278649569204,0.0018374654734000001,1.4,True,1.5964348539664126,CoIrN3,6.153505442350575,6.153505442350575,0.0
5865,perov_5865.cif,0.293542370096,0.0018374654734000001,1.46,True,0.9182492080582244,ZrRuO2S,5.653779240987972,5.653779240987972,0.0
5866,perov_5866.cif,0.296925605566,0.0018374654734000001,0.62,True,0.011399643965116724,SbNbO2N,6.033720918934276,6.033720918934276,0.0
5867,perov_5867.cif,0.20174592109499997,0.0036749309468000002,1.88,True,2.5273126347258312e-06,AlRuOFN,6.068753986702544,6.068753986702544,0.0
5868,perov_5868.cif,0.0854205700443,0.0018374654734000001,2.3,True,-1.6040360850372362,AsNaO3,5.779644571970189,5.779644571970189,0.0
5869,perov_5869.cif,0.24417239997600002,0.0018374654734000001,2.48,True,0.5785902667244827,RhZnN3,5.933163820853795,5.933163820853795,0.0
5870,perov_5870.cif,0.285379329624,0.0018374654734000001,0.98,False,-0.09562132340272286,HfZnO3,6.369953384288483,5.199953384288482,1.2
5871,perov_5871.cif,0.227673369274,0.0036749309468000002,1.08,True,-0.9012848612593752,BaCuOFN,5.848420421628537,5.848420421628537,0.0
5872,perov_5872.cif,0.18689475652399998,0.0036749309468000002,0.48,True,3.7681065912650813,ZnMnO2F,6.280420558442647,6.280420558442647,0.0
5873,perov_5873.cif,0.127777332885,0.0018374654734000001,2.3,True,1.999862010013436,BZrO2N,5.777455483292552,5.777455483292552,0.0
5874,perov_5874.cif,0.33601855325999996,0.0036749309468000002,1.62,True,2.539544944899258,TaGeOFN,6.40124369376853,6.40124369376853,0.0
5875,perov_5875.cif,0.126389054339,0.0018374654734000001,1.3,True,0.8607013476029728,AgCdO2S,5.864532625452236,5.864532625452236,0.0
5876,perov_5876.cif,0.176327355675,0.0018374654734000001,1.0,True,-6.830227064824609e-06,PtHfO2S,5.823686422311008,5.823686422311008,0.0
5877,perov_5877.cif,0.12876174760700002,0.0018374654734000001,1.84,True,-3.969855567488122,MnCdO2S,5.660638236799934,5.660638236799934,0.0
5878,perov_5878.cif,0.153232089461,0.0018374654734000001,1.66,True,0.0004032119322374791,AlYON2,5.272685924268734,5.272685924268734,0.0
5879,perov_5879.cif,0.115922099231,0.0018374654734000001,1.52,True,2.3509806869605967,LiNbN3,5.408115322301608,5.408115322301608,0.0
5880,perov_5880.cif,0.225940190061,0.0018374654734000001,1.14,False,-2.474800516338859e-05,TiSnON2,5.828456062092121,5.528456062092119,0.3
5881,perov_5881.cif,0.08026711076899999,0.0018374654734000001,1.32,True,1.6914315891554068,NaCuO3,5.588581136583797,5.588581136583797,0.0
5882,perov_5882.cif,0.24482151789,0.0018374654734000001,1.28,True,2.032456829409145,ReMgO2S,5.557905976191484,5.557905976191484,0.0
5883,perov_5883.cif,0.138598564349,0.0018374654734000001,1.5,True,0.7074762455799329,YKO3,5.053568950159424,5.053568950159424,0.0
5884,perov_5884.cif,0.324759337299,0.0018374654734000001,0.26,False,0.0012594723043247735,BiAlO3,7.745308652930023,3.5053086529300232,4.2
5885,perov_5885.cif,0.227717370589,0.0018374654734000001,0.96,True,0.0003427186792031023,GaSbON2,5.729953571172168,5.729953571172168,0.0
5886,perov_5886.cif,0.210993920732,0.0018374654734000001,4.1,True,1.9999939245694056,ReSrN3,4.986037266508324,4.986037266508324,0.0
5887,perov_5887.cif,0.194823508928,0.0018374654734000001,1.88,True,2.179717322448674,AlHfN3,5.306064547347648,5.306064547347648,0.0
5888,perov_5888.cif,0.17422591587000003,0.0036749309468000002,2.08,True,4.310052006377795,OsTlO2F,6.9180608408728625,6.9180608408728625,0.0
5889,perov_5889.cif,0.24967491418200002,0.0018374654734000001,1.34,True,2.303085232001527,SiFeO2N,6.029085877072243,6.029085877072243,0.0
5890,perov_5890.cif,0.319499413512,0.0018374654734000001,1.0,True,1.705753648728603e-05,ZrBeO2S,5.750896613456117,5.750896613456117,0.0
5891,perov_5891.cif,0.14995649279,0.0018374654734000001,1.12,True,1.9998442178202571,SnBaO3,5.4751703453885785,5.4751703453885785,0.0
5892,perov_5892.cif,0.326576214777,0.0018374654734000001,2.06,True,0.11089692031444187,IrNiO2N,6.269366505989791,6.269366505989791,0.0
5893,perov_5893.cif,0.23990806765500003,0.0018374654734000001,1.32,True,-0.8055704476872507,TiRhO3,5.75883314870172,5.75883314870172,0.0
5894,perov_5894.cif,0.180621374054,0.0018374654734000001,2.4,True,-0.055345208080494514,SiCsO3,5.366451382746126,5.366451382746126,0.0
5895,perov_5895.cif,0.234323506618,0.0018374654734000001,0.96,True,1.99996168466023,BaBeO3,5.620088578132597,5.620088578132597,0.0
5896,perov_5896.cif,0.23460657200100002,0.0018374654734000001,1.48,True,0.2429868255032588,RuScN3,5.653435512516249,5.653435512516249,0.0
5897,perov_5897.cif,0.39374696058700004,0.0018374654734000001,1.04,True,0.002397462122026184,HfTiO2N,5.45933277277807,5.45933277277807,0.0
5898,perov_5898.cif,0.234770983118,0.0018374654734000001,0.9,True,-0.00012026562764932896,SbYO2S,5.5896234437709715,5.5896234437709715,0.0
5899,perov_5899.cif,0.13513627470200001,0.0018374654734000001,1.5,True,2.9999908135081834,PdInO3,5.6757247622396765,5.6757247622396765,0.0
5900,perov_5900.cif,0.275082012358,0.0018374654734000001,0.6,True,0.9797442232011232,CaGeO2N,5.297378141130347,5.297378141130347,0.0
5901,perov_5901.cif,0.200222510827,0.0018374654734000001,1.58,True,-0.9403380364728484,RuAuO2S,6.199458152874187,6.199458152874187,0.0
5902,perov_5902.cif,0.3847118597,0.0036749309468000002,0.72,True,0.006247139267646417,BaReOFN,5.720208469046442,5.720208469046442,0.0
5903,perov_5903.cif,0.056665894266900003,0.0036749309468000002,2.46,True,0.0,FeBaO2F,5.774844599552367,5.774844599552367,0.0
5904,perov_5904.cif,0.145598498473,0.0036749309468000002,2.34,True,2.0004576059156687,WNaO2F,5.941110687311653,5.941110687311653,0.0
5905,perov_5905.cif,0.258509073945,0.0018374654734000001,1.3,True,-0.28812138503267737,SiGeO2N,6.181556307024643,6.181556307024643,0.0
5906,perov_5906.cif,0.131971650983,0.0018374654734000001,3.06,True,1.4840971866306027,BeAgO2N,6.173631208767105,6.173631208767105,0.0
5907,perov_5907.cif,0.34038194589299997,0.0018374654734000001,1.52,True,0.0010121612195206349,ZrPtO2N,6.087180620036893,6.087180620036893,0.0
5908,perov_5908.cif,0.228548103715,0.0036749309468000002,0.72,True,1.6156774988378086e-15,SbInO2F,6.160682436394553,6.160682436394553,0.0
5909,perov_5909.cif,0.22853544087699998,0.0018374654734000001,1.16,True,0.2990338767207667,CuAsO3,6.326853267937878,6.326853267937878,0.0
5910,perov_5910.cif,0.23169974972899998,0.0018374654734000001,0.3,True,0.31199387838345954,GaMoO3,5.563138890830484,5.563138890830484,0.0
5911,perov_5911.cif,0.240634011608,0.0018374654734000001,0.72,True,-5.1722851501576453e-05,LaLaO2S,6.478967680932716,3.578967680932716,2.9
5912,perov_5912.cif,0.0819034221359,0.0018374654734000001,3.62,True,3.999913803279267,GaRbON2,4.952744526933408,4.952744526933408,0.0
5913,perov_5913.cif,0.225027016268,0.0018374654734000001,1.16,False,-3.891016156147865e-05,ScYO2S,5.437803255978744,4.937803255978744,0.5
5914,perov_5914.cif,0.233188803983,0.0036749309468000002,0.86,True,5.060572852082087,MnZrOFN,5.990800922867589,5.990800922867589,0.0
5915,perov_5915.cif,0.262421517227,0.0018374654734000001,0.64,True,3.0392617805802677,CaFeO2N,5.1667163008619434,5.1667163008619434,0.0