,id,fermi level,fermi width,e_form,gap is direct,mu_b,formula,vbm,cbm,gap gllbsc
5621,perov_5621.cif,0.21742347194400002,0.0018374654734000001,1.54,True,0.4533518974033014,ScZnO2S,5.5449465348463045,5.5449465348463045,0.0
5622,perov_5622.cif,0.190800247555,0.0018374654734000001,2.5,True,3.9477009650318857,PdLaN3,5.5283309932419415,5.5283309932419415,0.0
5623,perov_5623.cif,0.21750230496800002,0.0018374654734000001,1.82,True,-1.5731991266420968,RuBaO2N,5.486486743781046,5.486486743781046,0.0
5624,perov_5624.cif,0.18849937605300002,0.0018374654734000001,2.12,True,0.0,RbSbN3,5.3445625687441085,5.3445625687441085,0.0
5625,perov_5625.cif,0.0253468060221,0.0036749309468000002,1.76,True,0.0,CdNaO2F,5.949190196805135,5.949190196805135,0.0
5626,perov_5626.cif,0.325053392113,0.0018374654734000001,1.76,True,2.0006635801123167,MoSbN3,5.919457620525599,5.919457620525599,0.0
5627,perov_5627.cif,0.30590300808800003,0.0018374654734000001,1.88,True,0.03607253294830315,LaLiN3,5.1125236994978085,5.1125236994978085,0.0
5628,perov_5628.cif,0.0987413576932,0.0018374654734000001,1.54,True,2.999996337269341,PdYO3,5.708304404725715,5.708304404725715,0.0
5629,perov_5629.cif,0.239720631772,0.0018374654734000001,0.84,True,3.845667886408002,RhMnO2S,5.627018545613702,5.627018545613702,0.0
5630,perov_5630.cif,0.17013919601,0.0036749309468000002,1.4,True,0.0,TeYOFN,6.307084198879237,6.307084198879237,0.0
5631,perov_5631.cif,0.0640936259418,0.0018374654734000001,3.8,True,0.5573759075449765,BeCsO2S,5.195221952350951,5.195221952350951,0.0
5632,perov_5632.cif,0.149468971148,0.0018374654734000001,1.96,True,2.001268874342447,HgCdO2N,6.249420079880093,6.249420079880093,0.0
5633,perov_5633.cif,0.317914508969,0.0018374654734000001,0.78,True,0.3612055630329252,ZrAlON2,5.413698218768044,5.413698218768044,0.0
5634,perov_5634.cif,0.122130237115,0.0018374654734000001,1.94,True,0.9769048538319396,BePbO2N,6.012485041828383,6.012485041828383,0.0
5635,perov_5635.cif,0.14865828062300002,0.0018374654734000001,1.08,True,0.9998445971591146,YSrO3,4.864532636648413,4.864532636648413,0.0
5636,perov_5636.cif,0.213332828,0.0018374654734000001,0.82,True,0.4265685094877938,SbZnO3,6.207222822147223,6.207222822147223,0.0
5637,perov_5637.cif,0.28747048902600003,0.0018374654734000001,2.18,True,-2.7005894875014027,OsRuO2N,6.1876985426834015,6.1876985426834015,0.0
5638,perov_5638.cif,0.28138862265500003,0.0018374654734000001,1.82,True,0.2836341682741584,OsRhON2,6.0887511208121845,6.0887511208121845,0.0
5639,perov_5639.cif,0.21098991814100002,0.0036749309468000002,1.26,True,-6.615038893783271e-06,BiLaOFN,5.887430267881336,5.887430267881336,0.0
5640,perov_5640.cif,0.22277708928800002,0.0036749309468000002,1.06,True,3.574906440311747e-15,SbInOFN,6.117538480115058,6.117538480115058,0.0
5641,perov_5641.cif,0.206320460044,0.0018374654734000001,0.92,True,0.10446432738997656,AuScO2S,5.840641143012606,5.840641143012606,0.0
5642,perov_5642.cif,0.198564837445,0.0018374654734000001,1.48,True,-0.13041729280263942,PdZnO2N,6.0585525202471135,6.0585525202471135,0.0
5643,perov_5643.cif,0.138646171888,0.0036749309468000002,2.62,True,1.0003533828087396,WNaOFN,5.899504416838957,5.899504416838957,0.0
5644,perov_5644.cif,0.26982987396200003,0.0018374654734000001,1.22,True,0.9891916512520724,TaScN3,5.549153152977889,5.549153152977889,0.0
5645,perov_5645.cif,0.278032628779,0.0018374654734000001,2.82,True,0.0009339880951593212,OsCsN3,5.2828860268868985,5.2828860268868985,0.0
5646,perov_5646.cif,0.192986280891,0.0018374654734000001,1.96,True,3.584800414202633e-05,YCaON2,4.888948161309366,4.888948161309366,0.0
5647,perov_5647.cif,0.186190843719,0.0018374654734000001,1.06,True,0.0010398127270327961,VScON2,5.444807789914483,5.444807789914483,0.0
5648,perov_5648.cif,0.3396351298,0.0036749309468000002,1.62,True,-4.2554255785521584e-15,HfCuOFN,6.137090136832691,6.137090136832691,0.0
5649,perov_5649.cif,0.240857231078,0.0018374654734000001,2.36,True,-0.003171320829853666,ScTlON2,5.924292896180575,5.924292896180575,0.0
5650,perov_5650.cif,0.253135538153,0.0036749309468000002,1.3,False,-2.103235960773244e-12,AlBeO2F,6.316534652676225,6.116534652676227,0.2
5651,perov_5651.cif,0.21391951035,0.0018374654734000001,1.08,True,0.0024623990585794786,PbPtO2S,5.979116654358182,5.979116654358182,0.0
5652,perov_5652.cif,0.254342208759,0.0036749309468000002,1.3,True,0.0,MnZrO2F,6.033051062190046,6.033051062190046,0.0
5653,perov_5653.cif,0.18139879968400002,0.0018374654734000001,1.8,True,2.0649011265258017,CrAgON2,5.801735714633344,5.801735714633344,0.0
5654,perov_5654.cif,0.08364197655,0.0036749309468000002,2.7,True,0.0,FeCaOFN,5.512463999189718,5.512463999189718,0.0
5655,perov_5655.cif,0.18950463426,0.0036749309468000002,1.4,True,0.8009789512302954,SrTlOFN,5.744820868593372,5.744820868593372,0.0
5656,perov_5656.cif,0.197696750999,0.0036749309468000002,0.32,False,3.399770973562982e-15,AgZrO2F,7.2503596423491565,5.2503596423491565,2.0
5657,perov_5657.cif,0.199986528393,0.0018374654734000001,1.96,True,3.9694040777405752,SrInN3,4.735861406567213,4.735861406567213,0.0
5658,perov_5658.cif,0.179413456476,0.0036749309468000002,2.42,True,4.5207771330407205,OsTlOFN,6.869612877917612,6.869612877917612,0.0
5659,perov_5659.cif,0.250756890429,0.0018374654734000001,2.56,True,0.13384611515704134,YBaON2,5.085783342258382,5.085783342258382,0.0
5660,perov_5660.cif,0.19549117686,0.0018374654734000001,1.86,True,1.1125193950679986,TlAuO2N,6.6554052379162885,6.6554052379162885,0.0
5661,perov_5661.cif,0.237175606387,0.0018374654734000001,0.74,True,0.002183561744875107,SnTaN3,5.836750228367532,5.836750228367532,0.0
5662,perov_5662.cif,0.0762306729644,0.0036749309468000002,2.96,True,0.0,FeBaOFN,5.734402709307855,5.734402709307855,0.0
5663,perov_5663.cif,0.241013737211,0.0018374654734000001,1.52,True,2.7053564189561956,PbBeO2N,6.012485041828383,6.012485041828383,0.0
5664,perov_5664.cif,0.380881942236,0.0036749309468000002,0.68,True,-1.313095486934911,BaReO2F,5.760550254374043,5.760550254374043,0.0
5665,perov_5665.cif,0.208762417597,0.0018374654734000001,1.04,True,1.0018600617871165,AgMnO2N,5.842652471075655,5.842652471075655,0.0
5666,perov_5666.cif,0.334156720821,0.0018374654734000001,1.38,True,0.5328478318129797,BaTeN3,5.6293995518983575,5.6293995518983575,0.0
5667,perov_5667.cif,0.279012760169,0.0018374654734000001,0.78,True,-2.2729689582289616,MnMnO2N,5.639518797894671,5.639518797894671,0.0
5668,perov_5668.cif,0.25126559591200004,0.0018374654734000001,0.72,True,0.006570736417639721,AuMoO3,6.2592899478533255,6.2592899478533255,0.0
5669,perov_5669.cif,0.152075419692,0.0018374654734000001,2.6,True,3.9997871599116164,SnSrON2,5.091813050332504,5.091813050332504,0.0
5670,perov_5670.cif,0.240809003168,0.0018374654734000001,1.78,True,-1.4674695534427475,BiMgON2,5.721993728981575,5.721993728981575,0.0
5671,perov_5671.cif,0.24520076999,0.0036749309468000002,1.9,True,4.0186652645922365,OsSnOFN,6.5420142571131645,6.5420142571131645,0.0
5672,perov_5672.cif,0.264024317954,0.0018374654734000001,1.1,True,0.6791537403064396,TlMoN3,6.068034437043713,6.068034437043713,0.0
5673,perov_5673.cif,0.31776231753,0.0018374654734000001,1.02,True,-2.3593042097393377,NbMoO3,5.8170380608110985,5.8170380608110985,0.0
5674,perov_5674.cif,0.0481423732131,0.0036749309468000002,1.92,True,0.0,GaBaOFN,5.4678044962531365,5.4678044962531365,0.0
5675,perov_5675.cif,-0.059383799395000006,0.0018374654734000001,2.54,True,0.0,LiKO3,4.995205482404753,4.995205482404753,0.0
5676,perov_5676.cif,0.20517023395999998,0.0018374654734000001,0.84,True,0.0009874439509367503,InMgO2S,5.279036438571828,5.279036438571828,0.0
5677,perov_5677.cif,0.288807568166,0.0036749309468000002,1.38,True,0.7183542356669363,YSbO2F,6.196045819866401,6.196045819866401,0.0
5678,perov_5678.cif,0.23875196619300001,0.0036749309468000002,1.4,True,1.998200239386556,ZrLaO2F,5.78668446239003,5.78668446239003,0.0
5679,perov_5679.cif,0.0916345353948,0.0018374654734000001,3.0,True,0.0,KHgN3,5.460316544939103,5.460316544939103,0.0
5680,perov_5680.cif,0.379808529828,0.0018374654734000001,0.34,True,0.005707873474182889,ZrTiO3,5.570075494544151,5.570075494544151,0.0
5681,perov_5681.cif,0.172659071765,0.0018374654734000001,1.18,True,1.9999457569051624,MoCaO3,5.161482310865514,5.161482310865514,0.0
5682,perov_5682.cif,0.176777285837,0.0018374654734000001,0.42,True,3.8709368135083153,CrTiO2S,5.384538349373726,5.384538349373726,0.0
5683,perov_5683.cif,0.160491774798,0.0018374654734000001,1.34,True,0.09148120263163584,MgPtO2S,5.9354460248727205,5.9354460248727205,0.0
5684,perov_5684.cif,0.0356784023713,0.0018374654734000001,1.26,True,0.0,RbCaO3,4.660201478972202,4.660201478972202,0.0
5685,perov_5685.cif,0.252385566045,0.0018374654734000001,1.32,True,0.006860873213469177,GeRhN3,5.9726340240952185,5.9726340240952185,0.0
5686,perov_5686.cif,0.254260944419,0.0018374654734000001,0.92,True,2.001355387856057,CrGeON2,5.842960009267381,5.842960009267381,0.0
5687,perov_5687.cif,0.198216886985,0.0018374654734000001,0.58,True,2.000000181490266,GeCrO2S,5.7034313926982705,5.7034313926982705,0.0
5688,perov_5688.cif,0.34600557706999996,0.0018374654734000001,1.4,True,0.05599854281066996,ZrPdN3,5.738692118750496,5.738692118750496,0.0
5689,perov_5689.cif,0.27924077737799996,0.0018374654734000001,1.28,True,-6.952808126570177e-06,PtAsON2,6.516268524290247,6.516268524290247,0.0
5690,perov_5690.cif,0.348402201496,0.0018374654734000001,0.6,True,1.4789172690570849,YCoO3,5.6692918342761995,5.6692918342761995,0.0
5691,perov_5691.cif,0.40270951130599997,0.0018374654734000001,0.94,True,0.4391864683418306,WSiON2,6.083936680594494,6.083936680594494,0.0
5692,perov_5692.cif,0.138916500415,0.0036749309468000002,2.32,True,-0.8657584024816629,YRbO2F,5.355616174162867,5.355616174162867,0.0
5693,perov_5693.cif,0.207179764789,0.0018374654734000001,0.42,False,-0.00016946378880277626,AuTaO2S,6.73510394778778,5.4351039477877805,1.3
5694,perov_5694.cif,0.0460065760279,0.0036749309468000002,1.86,True,0.0,GaCaOFN,5.25618394244954,5.25618394244954,0.0
5695,perov_5695.cif,0.397508375444,0.0036749309468000002,0.32,True,2.3870513583548816e-15,LaBeO2F,8.74113636366872,3.5411363636687176,5.2
5696,perov_5696.cif,0.252600497104,0.0036749309468000002,0.66,True,-1.1535321160588618e-15,TeTiOFN,6.406698864320461,6.406698864320461,0.0
5697,perov_5697.cif,0.158755517075,0.0036749309468000002,1.4,True,3.5778454055753834,CrPdO2F,6.280420558442647,6.280420558442647,0.0
5698,perov_5698.cif,0.214824325317,0.0018374654734000001,0.28,True,1.7777099454721483,VTaON2,5.672702801984626,5.672702801984626,0.0
5699,perov_5699.cif,0.118760084994,0.0018374654734000001,1.96,True,0.0,BaKO2N,4.846351442616832,4.846351442616832,0.0
5700,perov_5700.cif,0.296173345674,0.0018374654734000001,0.52,True,-0.2497733110612521,BaVON2,5.210269870464886,5.210269870464886,0.0
5701,perov_5701.cif,0.178612755735,0.0036749309468000002,1.04,True,0.0017527381215671762,KRuOFN,5.735372098896345,5.735372098896345,0.0
5702,perov_5702.cif,0.151242643008,0.0018374654734000001,2.42,True,0.642330714781119,NaBeN3,5.5709445341076815,5.5709445341076815,0.0
5703,perov_5703.cif,0.0901798504229,0.0018374654734000001,1.6,True,6.999997804487378,MnCaO3,5.112933095396412,5.112933095396412,0.0
5704,perov_5704.cif,0.13009698936699998,0.0036749309468000002,1.74,True,0.0,AsHgO2F,6.959810435805832,6.959810435805832,0.0
5705,perov_5705.cif,0.222100349801,0.0018374654734000001,1.14,True,0.01867625908799297,ScSnON2,5.641774766480862,5.641774766480862,0.0
5706,perov_5706.cif,0.252538281067,0.0036749309468000002,0.74,True,-8.408355922393055e-15,SrSnOFN,5.470861414579671,5.470861414579671,0.0
5707,perov_5707.cif,0.36739504348000007,0.0018374654734000001,1.24,False,-0.0002489401267760493,TeBO2N,6.5723574494456125,5.972357449445614,0.6
5708,perov_5708.cif,0.170313959493,0.0018374654734000001,1.32,True,2.2743483431033797,CuTaN3,5.884817792877548,5.884817792877548,0.0
5709,perov_5709.cif,0.19312156078899997,0.0018374654734000001,1.48,True,2.59145273132467,MgBeO2N,5.968570694320682,5.968570694320682,0.0
5710,perov_5710.cif,0.264421078975,0.0018374654734000001,0.98,True,-0.228077942675124,CrFeON2,5.698841185372614,5.698841185372614,0.0
5711,perov_5711.cif,0.29086815726,0.0018374654734000001,4.08,True,0.25356971910589005,HfCsON2,4.950082742043796,4.950082742043796,0.0
5712,perov_5712.cif,0.164960224109,0.0018374654734000001,1.16,True,1.007083997643111,CaPbO2N,5.122704788846487,5.122704788846487,0.0
5713,perov_5713.cif,0.11799178330999999,0.0018374654734000001,1.92,True,3.1526094578328885,CrHgO2S,5.849500143928938,5.849500143928938,0.0
5714,perov_5714.cif,0.330177433553,0.0018374654734000001,0.46,True,6.658386377367265e-05,InReO3,5.558763523378071,5.558763523378071,0.0
5715,perov_5715.cif,0.12666264328,0.0018374654734000001,2.56,True,0.3263583358755717,CaCsO2S,4.426387456979931,4.426387456979931,0.0
5716,perov_5716.cif,0.191476069617,0.0018374654734000001,0.72,True,0.9971965982162024,CdGaO3,5.70673527156507,5.70673527156507,0.0
5717,perov_5717.cif,0.30712354684300003,0.0036749309468000002,0.8,False,9.653094741026732e-17,CuSiO2F,7.856708262043308,5.356708262043308,2.5
5718,perov_5718.cif,0.21114835031100002,0.0018374654734000001,1.42,True,0.0013506817708552887,AsCuO2N,6.2825455985202625,6.2825455985202625,0.0
5719,perov_5719.cif,0.294388356664,0.0018374654734000001,1.54,True,-2.3307692442384846,VIrO2N,6.022733190979269,6.022733190979269,0.0
5720,perov_5720.cif,0.231459567889,0.0018374654734000001,1.86,True,2.8728051365334302e-05,GeAgN3,6.0110287738727175,6.0110287738727175,0.0
5721,perov_5721.cif,0.186486700005,0.0018374654734000001,1.26,True,6.864752049651203e-05,AsPdO2S,6.081395431609674,6.081395431609674,0.0
5722,perov_5722.cif,0.256635336792,0.0036749309468000002,1.16,True,0.5429068216762971,TiOsOFN,6.260104949722298,6.260104949722298,0.0
5723,perov_5723.cif,0.220371831857,0.0018374654734000001,1.1,True,0.7624562682649092,BiBeO2S,5.892283684236556,5.892283684236556,0.0
5724,perov_5724.cif,0.286269084784,0.0018374654734000001,1.28,True,0.23059903102364024,PdOsN3,6.087716514624022,6.087716514624022,0.0
5725,perov_5725.cif,0.28918481401,0.0018374654734000001,1.82,True,-0.014470012659369631,InBeON2,5.705376570884348,5.705376570884348,0.0
5726,perov_5726.cif,-0.0169834724057,0.0036749309468000002,2.54,True,0.0,NiNaO2F,5.941110687311653,5.941110687311653,0.0
5727,perov_5727.cif,0.272016918914,0.0018374654734000001,0.3,True,1.9995451284297832,CdCrO3,5.881205015690261,5.881205015690261,0.0
5728,perov_5728.cif,0.262299888193,0.0036749309468000002,1.08,True,4.9343582956946144e-15,SbSbOFN,6.690409781983449,6.690409781983449,0.0
5729,perov_5729.cif,0.326642526738,0.0018374654734000001,1.08,True,-0.1371542517291962,ZrCuO3,5.868848048427537,5.868848048427537,0.0
5730,perov_5730.cif,0.27263538484,0.0018374654734000001,1.88,True,0.44300259457859786,OsSnN3,6.046110907675865,6.046110907675865,0.0
5731,perov_5731.cif,0.21614703953699999,0.0018374654734000001,0.78,True,3.0000004938381224,CdMnO2S,5.660638236799934,5.660638236799934,0.0
5732,perov_5732.cif,0.0947264079981,0.0018374654734000001,1.4,True,2.9951824144348467,KTlO2N,5.593741783518863,5.593741783518863,0.0
5733,perov_5733.cif,0.17970314148,0.0036749309468000002,1.68,True,3.033066272374917,CoPtO2F,6.761964190518298,6.761964190518298,0.0
5734,perov_5734.cif,0.0232974079096,0.0036749309468000002,2.58,True,0.0,RhNaO2F,5.9138567363616685,5.9138567363616685,0.0
5735,perov_5735.cif,0.155609294902,0.0018374654734000001,2.38,True,0.026924562390826526,PbNaN3,5.319606876931009,5.319606876931009,0.0
5736,perov_5736.cif,0.29781112789299996,0.0036749309468000002,1.16,True,3.4867253033971544,VReOFN,6.067997567136885,6.067997567136885,0.0
5737,perov_5737.cif,0.242670460385,0.0036749309468000002,0.68,True,0.22362508212400206,AsTiO2F,6.406592918005616,6.406592918005616,0.0
5738,perov_5738.cif,0.251444406531,0.0018374654734000001,0.34,False,-7.1852957822485675e-06,MgGeO3,7.400192449773827,4.470192449773829,2.9
5739,perov_5739.cif,0.100148414992,0.0036749309468000002,2.82,True,0.0,SbRbOFN,5.782924768774646,5.782924768774646,0.0
5740,perov_5740.cif,0.18532983313700002,0.0036749309468000002,1.84,True,0.0028541514114053253,TeHgOFN,6.959925530720887,6.959925530720887,0.0
5741,perov_5741.cif,0.166453616758,0.0018374654734000001,2.0,True,0.12961867976055427,SiPbO2N,5.9777284635682895,5.9777284635682895,0.0
5742,perov_5742.cif,0.0958784326526,0.0018374654734000001,3.62,True,0.32498206798639906,SiCsO2S,5.165189754830417,5.165189754830417,0.0
5743,perov_5743.cif,0.30067876507,0.0018374654734000001,1.2,True,0.00014573192748201813,BiPtO2N,6.236835307823262,6.236835307823262,0.0
5744,perov_5744.cif,0.090134936019,0.0018374654734000001,1.98,True,1.8195226964318143,SnNaO2N,5.504115463015556,5.504115463015556,0.0
5745,perov_5745.cif,0.25986612778,0.0018374654734000001,0.88,True,0.6907482507615227,BiRuO2S,5.792778659592044,5.792778659592044,0.0
5746,perov_5746.cif,0.208422589221,0.0018374654734000001,0.84,True,0.4816375661779997,BeTaO2S,5.889413598274106,5.889413598274106,0.0
5747,perov_5747.cif,0.38770823026199996,0.0018374654734000001,1.42,True,2.5374596200591384,WReN3,5.837676927853988,5.837676927853988,0.0
5748,perov_5748.cif,0.250526964795,0.0018374654734000001,1.12,True,0.004241279135325017,InRhO2N,5.597458759905448,5.597458759905448,0.0
5749,perov_5749.cif,0.280745117443,0.0018374654734000001,1.24,True,0.3228897398886588,InRuON2,5.609027911058131,5.609027911058131,0.0
5750,perov_5750.cif,0.325362272382,0.0018374654734000001,-0.12,True,7.085376041260359e-05,SrMoO3,5.064025760554097,5.064025760554097,0.0
5751,perov_5751.cif,0.012157494681299999,0.0036749309468000002,2.06,True,3.582263871925345,HgNaOFN,6.104626476203481,6.104626476203481,0.0
5752,perov_5752.cif,0.394870132887,0.0018374654734000001,2.06,True,2.045122011808445,ReAsN3,6.0590522126863045,6.0590522126863045,0.0
5753,perov_5753.cif,0.20320243065000002,0.0018374654734000001,1.8,True,0.7150243507019381,MoAgON2,5.8568253690546275,5.8568253690546275,0.0
5754,perov_5754.cif,0.268258855532,0.0036749309468000002,0.2,True,-2.267501589083243e-15,CsZrO2F,5.4264678721848165,5.4264678721848165,0.0
5755,perov_5755.cif,0.288612466617,0.0036749309468000002,0.74,True,2.7718214026725256,SbCrOFN,6.344727276679169,6.344727276679169,0.0
5756,perov_5756.cif,0.254224806748,0.0018374654734000001,0.96,True,0.6494072497989727,HfScON2,5.386081599853486,5.386081599853486,0.0
5757,perov_5757.cif,0.242767354218,0.0036749309468000002,1.38,True,0.01390493256204195,AsIrOFN,6.942556912793576,6.942556912793576,0.0
5758,perov_5758.cif,0.377276342891,0.0036749309468000002,1.74,True,0.08950353742708117,IrSiOFN,6.794940610850599,6.794940610850599,0.0
5759,perov_5759.cif,0.23356411572500002,0.0036749309468000002,1.0,True,2.3207558664376715,CoMoOFN,6.252628643973679,6.252628643973679,0.0
5760,perov_5760.cif,0.18590494379900002,0.0018374654734000001,1.98,True,1.686392953518272,AuInN3,5.8536688196683215,5.8536688196683215,0.0
5761,perov_5761.cif,0.203880862836,0.0036749309468000002,1.48,True,1.6705394563072389,VCuOFN,6.2040048159209,6.2040048159209,0.0
5762,perov_5762.cif,0.249914035912,0.0018374654734000001,0.8,True,-0.37253555368534863,BaPdO3,5.51284709145608,5.51284709145608,0.0
5763,perov_5763.cif,0.165827480055,0.0018374654734000001,0.76,True,0.9952414764254236,CdScO3,5.755817619833838,5.755817619833838,0.0
5764,perov_5764.cif,0.16594311029300002,0.0018374654734000001,0.96,True,0.9911410328411066,CaScO2S,4.816259702765781,4.816259702765781,0.0
5765,perov_5765.cif,0.249251987139,0.0036749309468000002,0.6,True,-7.385207511495577e-16,PbSnOFN,6.249418873983808,6.249418873983808,0.0
5766,perov_5766.cif,0.296273857164,0.0018374654734000001,1.04,True,2.971848174978717,BaTiN3,5.129929826480397,5.129929826480397,0.0
5767,perov_5767.cif,0.22243196450199998,0.0036749309468000002,1.24,True,6.268820736987541,RuCoO2F,6.4795423129054885,6.4795423129054885,0.0
5768,perov_5768.cif,0.011108550241000001,0.0018374654734000001,2.28,True,0.0,CuSrO3,5.206412664280743,5.206412664280743,0.0