,id,fermi level,fermi width,e_form,gap is direct,mu_b,formula,vbm,cbm,gap gllbsc
1199,perov_1199.cif,-0.011290151508799999,0.0018374654734000001,2.24,True,0.0,RbKO2N,4.71662248831103,4.71662248831103,0.0
1200,perov_1200.cif,0.235850077936,0.0018374654734000001,2.08,True,2.7475906235813734,OsPdO3,6.21742792917619,6.21742792917619,0.0
1201,perov_1201.cif,0.133264786965,0.0018374654734000001,2.96,True,1.4258093762582753,BeTlO2N,6.441374616855746,6.441374616855746,0.0
1202,perov_1202.cif,0.151322198671,0.0018374654734000001,1.48,True,3.685474821950788,GaHfN3,5.302754460835795,5.302754460835795,0.0
1203,perov_1203.cif,0.304161234433,0.0036749309468000002,1.18,True,0.3387590314007962,TaWOFN,6.3445866047220285,6.3445866047220285,0.0
1204,perov_1204.cif,0.0878629017554,0.0018374654734000001,2.16,True,1.9999955624831185,BeMgO3,6.010664054897632,6.010664054897632,0.0
1205,perov_1205.cif,0.183594915962,0.0036749309468000002,1.52,True,0.0,AsZnOFN,6.693961333927187,6.693961333927187,0.0
1206,perov_1206.cif,0.22468674210700001,0.0018374654734000001,0.7,True,0.9992163410134476,CaSnO2N,5.226405472577597,5.226405472577597,0.0
1207,perov_1207.cif,0.182662239452,0.0036749309468000002,0.46,True,2.0014419900632743,AgCrO2F,6.2775953568678355,6.2775953568678355,0.0
1208,perov_1208.cif,0.214873006417,0.0018374654734000001,0.7,True,1.0073988984297078,CoWN3,5.9197705378831955,5.9197705378831955,0.0
1209,perov_1209.cif,0.34017649936899996,0.0018374654734000001,1.76,True,1.3252709293937814,FeBN3,5.822604767872798,5.822604767872798,0.0
1210,perov_1210.cif,0.221150391127,0.0036749309468000002,0.2,True,7.9964464524019485,MnCrO2F,6.0593398624845305,6.0593398624845305,0.0
1211,perov_1211.cif,0.156062785688,0.0036749309468000002,1.04,True,-6.2492379999200435e-15,SrAgO2F,5.5448618416615805,5.5448618416615805,0.0
1212,perov_1212.cif,0.162936114133,0.0036749309468000002,2.28,True,4.51916540245333,OsAgO2F,6.6305034021154805,6.6305034021154805,0.0
1213,perov_1213.cif,0.20156254227,0.0018374654734000001,1.48,True,0.5785610030104565,SiSnO2N,6.098737687090328,6.098737687090328,0.0
1214,perov_1214.cif,0.208553311965,0.0036749309468000002,1.84,True,1.2084393780460572,AuBeOFN,6.941133573658054,6.941133573658054,0.0
1215,perov_1215.cif,0.20718462417800002,0.0018374654734000001,0.48,True,3.7785645868208015,MnVON2,5.5634200036447465,5.5634200036447465,0.0
1216,perov_1216.cif,0.11043923275900001,0.0018374654734000001,2.84,True,-3.5404954140123337,MnKO2N,5.174835321561059,5.174835321561059,0.0
1217,perov_1217.cif,0.255992280429,0.0036749309468000002,1.12,True,2.409895241714888,RuWO2F,6.50940322030429,6.50940322030429,0.0
1218,perov_1218.cif,0.16647035665999999,0.0018374654734000001,0.78,True,1.999998641216912,BaCaO3,4.7883785943168515,4.7883785943168515,0.0
1219,perov_1219.cif,0.24804757489999998,0.0018374654734000001,1.7,True,3.1795355882518197,ReRhO3,5.93471067478779,5.93471067478779,0.0
1220,perov_1220.cif,0.218028181391,0.0036749309468000002,0.76,True,0.33472561274713897,TlNiO2F,6.7735000846726345,6.7735000846726345,0.0
1221,perov_1221.cif,0.198130647016,0.0036749309468000002,2.44,True,0.0,IrAuOFN,7.061540225019053,7.061540225019053,0.0
1222,perov_1222.cif,0.303970445889,0.0018374654734000001,1.86,True,0.2137006851547856,GeBN3,5.969853467012503,5.969853467012503,0.0
1223,perov_1223.cif,0.23062951196400003,0.0018374654734000001,2.22,True,1.229067674177422,SiBiN3,5.95950792218867,5.95950792218867,0.0
1224,perov_1224.cif,0.0776262299198,0.0018374654734000001,1.22,True,1.9983312814737173,NaGaO2S,5.02892356834198,5.02892356834198,0.0
1225,perov_1225.cif,0.0639230675989,0.0018374654734000001,2.3,True,1.7265709106953575,GeNaO2N,5.578859331336209,5.578859331336209,0.0
1226,perov_1226.cif,0.197276023279,0.0018374654734000001,3.76,True,-0.022556791711770045,TiSrN3,4.838274056562493,4.838274056562493,0.0
1227,perov_1227.cif,0.231999700035,0.0018374654734000001,1.08,True,0.3545672072255748,AlMoO3,5.566611514566339,5.566611514566339,0.0
1228,perov_1228.cif,0.196279360934,0.0018374654734000001,1.14,True,0.3809369031736658,AsRhO2S,6.0398330251776295,6.0398330251776295,0.0
1229,perov_1229.cif,0.238100690359,0.0018374654734000001,0.48,True,0.018145468054015627,CdNbO2S,5.743396655302745,5.743396655302745,0.0
1230,perov_1230.cif,0.192072899747,0.0036749309468000002,1.0,True,-0.10059537892556436,PbPbOFN,6.125419882027563,6.125419882027563,0.0
1231,perov_1231.cif,0.18340508887200002,0.0018374654734000001,0.9,True,1.2467867234904284,CoGeO2S,5.87112497279701,5.87112497279701,0.0
1232,perov_1232.cif,0.250127991473,0.0018374654734000001,1.48,True,0.4106603496168546,AsPtON2,6.516268524290247,6.516268524290247,0.0
1233,perov_1233.cif,0.17719402028099998,0.0018374654734000001,1.98,True,0.0032590710849298428,PtNaON2,5.755893777450059,5.755893777450059,0.0
1234,perov_1234.cif,0.13137892180500002,0.0018374654734000001,2.04,True,4.415842773048972,HgYN3,5.770492537520331,5.770492537520331,0.0
1235,perov_1235.cif,0.236723053268,0.0018374654734000001,1.6,True,3.3588668943579667,MnCuN3,5.77144866733461,5.77144866733461,0.0
1236,perov_1236.cif,0.224715048424,0.0018374654734000001,1.6,True,-1.5155133619842682,VZnO2N,5.807074196350036,5.807074196350036,0.0
1237,perov_1237.cif,0.20928686235999996,0.0018374654734000001,1.48,True,3.636081153659745,CoTiON2,5.6784560620921205,5.6784560620921205,0.0
1238,perov_1238.cif,0.171716163968,0.0018374654734000001,1.38,True,1.9083278540917004,BaLiO2N,5.06250109986803,5.06250109986803,0.0
1239,perov_1239.cif,0.190383781831,0.0036749309468000002,0.66,True,2.000416728859948e-15,AgSbO2F,6.619620284909249,6.619620284909249,0.0
1240,perov_1240.cif,0.206972969352,0.0036749309468000002,1.7,True,0.0,MnSbO2F,6.389473482546142,6.389473482546142,0.0
1241,perov_1241.cif,0.15789435419700001,0.0036749309468000002,3.26,True,0.0,ZrCsO2F,5.4264678721848165,5.4264678721848165,0.0
1242,perov_1242.cif,0.301050564409,0.0018374654734000001,0.98,True,2.592038762093918,TiFeON2,5.613604159431984,5.613604159431984,0.0
1243,perov_1243.cif,0.0476701947015,0.0036749309468000002,1.82,True,0.0,TlSrOFN,5.744820868593372,5.744820868593372,0.0
1244,perov_1244.cif,0.210914549639,0.0036749309468000002,1.54,True,1.5759812659174623,TiPdO2F,6.186484905097529,6.186484905097529,0.0
1245,perov_1245.cif,0.165154662339,0.0018374654734000001,1.42,True,2.8488425675371802,PdScON2,5.6805979814381375,5.6805979814381375,0.0
1246,perov_1246.cif,-0.00891267859741,0.0036749309468000002,2.5,True,0.0,AgRbO2F,5.721737136127407,5.721737136127407,0.0
1247,perov_1247.cif,0.101118399834,0.0018374654734000001,1.9,True,0.0007970410540246638,GaYON2,5.2693966603701465,5.2693966603701465,0.0
1248,perov_1248.cif,0.0326731031184,0.0036749309468000002,2.28,True,6.506000660483898,MnRbO2F,5.522807371402993,5.522807371402993,0.0
1249,perov_1249.cif,0.16478633714500002,0.0018374654734000001,0.32,False,-4.350578202727486e-05,KTaO2S,6.114414373429358,4.114414373429357,2.0
1250,perov_1250.cif,0.254825010922,0.0018374654734000001,1.38,True,0.008271266485078142,ZnIrN3,6.1958500722618055,6.1958500722618055,0.0
1251,perov_1251.cif,0.24380280743299998,0.0018374654734000001,0.92,True,3.3185130752749394,CoFeO2S,5.726311449398482,5.726311449398482,0.0
1252,perov_1252.cif,0.284686645846,0.0036749309468000002,1.84,True,2.7942204490079408,TaSnOFN,6.315481768737014,6.315481768737014,0.0
1253,perov_1253.cif,-0.013842020656900001,0.0018374654734000001,3.16,True,0.0,ZnKO2S,5.19889615591324,5.19889615591324,0.0
1254,perov_1254.cif,0.21468739539,0.0018374654734000001,1.88,True,1.2270013697201223,AgAlN3,5.593688103280449,5.593688103280449,0.0
1255,perov_1255.cif,0.0994390966303,0.0036749309468000002,1.7,True,0.6384705074596511,CuAuO2F,6.865922576701433,6.865922576701433,0.0
1256,perov_1256.cif,0.168896908453,0.0018374654734000001,2.6,True,5.38684591578784,RbCuN3,5.260407893766819,5.260407893766819,0.0
1257,perov_1257.cif,0.31137851565,0.0018374654734000001,1.66,True,-0.9821486582622884,MoCuN3,5.826250734893752,5.826250734893752,0.0
1258,perov_1258.cif,0.23297170255999997,0.0018374654734000001,0.5,True,0.9999981398260438,CsNbO2N,5.1466625498236365,5.1466625498236365,0.0
1259,perov_1259.cif,0.190856246179,0.0018374654734000001,1.28,True,0.005664829259544035,InCuO2S,5.470210124374574,5.470210124374574,0.0
1260,perov_1260.cif,0.110068626556,0.0018374654734000001,3.98,True,3.999599067505161,GeRbN3,5.28829147704473,5.28829147704473,0.0
1261,perov_1261.cif,0.144148033168,0.0036749309468000002,1.4,True,3.662532763556282,RbNiOFN,5.671392833701867,5.671392833701867,0.0
1262,perov_1262.cif,0.294838511904,0.0018374654734000001,2.24,True,0.0017081205200355494,TeZnN3,6.230273580681231,6.230273580681231,0.0
1263,perov_1263.cif,0.245603940248,0.0018374654734000001,1.92,True,0.9609128893768608,AuNiN3,6.278361879348828,6.278361879348828,0.0
1264,perov_1264.cif,0.20516527045000002,0.0036749309468000002,1.18,True,-4.3771276811865815e-15,AuRuOFN,6.8239162595705745,6.8239162595705745,0.0
1265,perov_1265.cif,0.23053628434999998,0.0018374654734000001,1.3,True,-0.15571606475025102,InPdO2N,5.635977019432822,5.635977019432822,0.0
1266,perov_1266.cif,0.11631946024499999,0.0036749309468000002,1.42,True,1.9663254707175184,PtYO2F,6.369968900546088,6.369968900546088,0.0
1267,perov_1267.cif,0.270080083593,0.0018374654734000001,1.52,True,0.0028158102526703037,BiCuON2,5.929208557679659,5.929208557679659,0.0
1268,perov_1268.cif,0.30565806646,0.0018374654734000001,1.34,True,-0.05967648415701025,RuFeN3,5.878524817195803,5.878524817195803,0.0
1269,perov_1269.cif,0.292149891108,0.0018374654734000001,0.9,False,5.195768257948429e-05,TiGeON2,6.155567411776104,5.355567411776104,0.8
1270,perov_1270.cif,0.207060117854,0.0018374654734000001,1.5,True,-1.1514958738334315,NbAgO2S,5.745987272800185,5.745987272800185,0.0
1271,perov_1271.cif,0.264170658124,0.0018374654734000001,1.36,True,2.99896847330486,BaSnN3,5.36094431840373,5.36094431840373,0.0
1272,perov_1272.cif,0.317125466031,0.0018374654734000001,1.16,True,-0.004061300591515641,TeAlO2N,5.918891078723054,5.918891078723054,0.0
1273,perov_1273.cif,0.227211430926,0.0018374654734000001,0.56,True,1.295795421372354,TiTiO2S,5.304002321076972,5.304002321076972,0.0
1274,perov_1274.cif,0.275101299549,0.0018374654734000001,1.18,True,0.08859813549122995,TeOsO2S,6.240973063432037,6.240973063432037,0.0
1275,perov_1275.cif,0.170736915992,0.0036749309468000002,2.02,True,0.9931438072991092,BeBeOFN,6.717914238917838,6.717914238917838,0.0
1276,perov_1276.cif,0.239121275726,0.0018374654734000001,1.86,True,0.024945864290511828,WAuON2,6.322640043075945,6.322640043075945,0.0
1277,perov_1277.cif,0.27608907517700004,0.0018374654734000001,1.6,True,-1.9322043451886717,CrBeN3,5.875819558425598,5.875819558425598,0.0
1278,perov_1278.cif,0.178038288062,0.0018374654734000001,1.1,True,-4.46905295011579,MnPdO3,5.886505794930151,5.886505794930151,0.0
1279,perov_1279.cif,0.399540214715,0.0018374654734000001,0.4,True,3.2349801846500514,LaFeO2N,5.504672274310686,5.504672274310686,0.0
1280,perov_1280.cif,0.22539562225200002,0.0018374654734000001,1.42,True,2.768556673671723,MnTiN3,5.477634541680351,5.477634541680351,0.0
1281,perov_1281.cif,0.137687128853,0.0036749309468000002,0.88,True,1.5546236262232822,NiAsO2F,6.725953269451073,6.725953269451073,0.0
1282,perov_1282.cif,0.21662370354000002,0.0018374654734000001,0.72,True,-3.1481846924918963e-06,SnSbO2S,5.933597817411733,5.933597817411733,0.0
1283,perov_1283.cif,0.187590951323,0.0018374654734000001,2.4,True,0.2864462226574781,TiYN3,5.311810855377355,5.311810855377355,0.0
1284,perov_1284.cif,0.335579856067,0.0036749309468000002,1.54,True,1.608147626679532,TaBO2F,6.357060815331504,6.357060815331504,0.0
1285,perov_1285.cif,0.163574311075,0.0018374654734000001,2.76,True,4.937223263571771,CoHgON2,6.1687980282219295,6.1687980282219295,0.0
1286,perov_1286.cif,0.20853628929600002,0.0036749309468000002,0.7,True,3.8777869592608685,MgFeO2F,6.1761750503730575,6.1761750503730575,0.0
1287,perov_1287.cif,0.173669516503,0.0018374654734000001,2.02,True,-0.7056622284698026,AlAgO2N,5.6728653212122575,5.6728653212122575,0.0
1288,perov_1288.cif,-0.0400784426354,0.0036749309468000002,3.42,True,0.0,BeKO2F,5.8750345584784816,5.8750345584784816,0.0
1289,perov_1289.cif,0.169485553947,0.0018374654734000001,0.96,True,0.9831015370592341,CaLaO2S,4.720217298828506,4.720217298828506,0.0
1290,perov_1290.cif,0.303926286736,0.0018374654734000001,1.46,True,0.0006552463757465432,HfLaON2,5.278676215472907,5.278676215472907,0.0
1291,perov_1291.cif,0.170714313489,0.0018374654734000001,1.88,True,-1.1177074738546784,MgPdON2,5.813678553267986,5.813678553267986,0.0
1292,perov_1292.cif,0.291254323347,0.0018374654734000001,0.98,True,0.5380609869135604,MoTiN3,5.529646734029296,5.529646734029296,0.0
1293,perov_1293.cif,0.279490711209,0.0018374654734000001,1.88,True,0.0002155721543601885,ZrCaN3,4.984544291712218,4.984544291712218,0.0
1294,perov_1294.cif,0.310767794878,0.0018374654734000001,0.92,True,0.0004120208686906324,SnAsO2N,6.2312293680994175,6.2312293680994175,0.0
1295,perov_1295.cif,0.231332586095,0.0018374654734000001,2.3,True,-0.000318172110759192,BLiN3,5.48435304697492,5.48435304697492,0.0
1296,perov_1296.cif,0.170212212343,0.0018374654734000001,1.86,True,3.369298884712673,RbTiN3,4.9926099395652015,4.9926099395652015,0.0
1297,perov_1297.cif,0.16551592800200002,0.0018374654734000001,1.48,True,0.00468998124693698,SiLaO2S,5.508062335129837,5.508062335129837,0.0
1298,perov_1298.cif,0.311149939576,0.0018374654734000001,0.64,True,2.333246183359126,TiTaO3,5.704237193940298,5.704237193940298,0.0
1299,perov_1299.cif,0.0759968552901,0.0018374654734000001,2.58,True,2.3329890485638987,SnRbO2S,5.128766533652418,5.128766533652418,0.0
1300,perov_1300.cif,0.222791310035,0.0018374654734000001,2.12,True,1.15812785519562,MoLiO2S,5.289349785672852,5.289349785672852,0.0
1301,perov_1301.cif,0.167243472388,0.0018374654734000001,2.26,True,-1.1137180399745192,TiHgO2S,5.76200972626516,5.76200972626516,0.0
1302,perov_1302.cif,0.295495607771,0.0036749309468000002,1.7,True,1.3555643248540512,RuBOFN,6.431169922045384,6.431169922045384,0.0
1303,perov_1303.cif,0.141410737515,0.0018374654734000001,2.28,True,2.5776206718291297,AuTlO2N,6.6554052379162885,6.6554052379162885,0.0
1304,perov_1304.cif,0.145662721132,0.0018374654734000001,4.52,True,1.2192430609700369,RhKN3,5.252637269388353,5.252637269388353,0.0
1305,perov_1305.cif,0.252824989948,0.0018374654734000001,0.7,True,-1.2914729321020525e-05,OsVON2,5.876179199923612,5.876179199923612,0.0
1306,perov_1306.cif,0.415316061766,0.0018374654734000001,0.3,False,-0.000305183137073371,LaGeO2N,5.758880732362832,5.528880732362833,0.2
1307,perov_1307.cif,0.11987444145199999,0.0018374654734000001,3.74,True,-5.005928967169246,OsKO2N,5.465749423855442,5.465749423855442,0.0
1308,perov_1308.cif,0.15130450987400001,0.0018374654734000001,1.26,True,-0.5081859246168997,RbPdO3,5.3652771314788845,5.3652771314788845,0.0
1309,perov_1309.cif,0.252166374039,0.0018374654734000001,1.84,True,0.3831145897376319,CuBON2,5.9802566245965165,5.9802566245965165,0.0
1310,perov_1310.cif,0.235077340311,0.0018374654734000001,2.92,True,5.996525326647473,CsBeN3,5.2850449511987385,5.2850449511987385,0.0
1311,perov_1311.cif,0.22934000854800002,0.0018374654734000001,1.46,True,2.8577332334495296,MoPdO3,5.942400373025744,5.942400373025744,0.0
1312,perov_1312.cif,0.249158193071,0.0018374654734000001,0.74,True,0.0002933871747803352,GeAsO3,6.360389705329496,6.360389705329496,0.0
1313,perov_1313.cif,0.151250282871,0.0036749309468000002,1.12,True,2.6082616443081457,RhAsO2F,6.695098971299551,6.695098971299551,0.0
1314,perov_1314.cif,0.231066458501,0.0036749309468000002,0.68,True,1.6176440317841294e-16,MgGeO2F,6.332365239829928,6.332365239829928,0.0
1315,perov_1315.cif,0.155516525323,0.0036749309468000002,1.12,True,-2.2742438841963083e-16,PbAgO2F,6.333950290637152,6.333950290637152,0.0
1316,perov_1316.cif,0.09722154908530001,0.0018374654734000001,2.86,True,-0.6125950307207912,PtSrO2N,5.4001013501134745,5.4001013501134745,0.0
1317,perov_1317.cif,0.339205436023,0.0018374654734000001,1.42,True,1.505618188027718,YPtN3,5.845879002997179,5.845879002997179,0.0
1318,perov_1318.cif,0.162942876341,0.0018374654734000001,1.78,True,1.999925989182321,AsMgO2N,6.062982296382892,6.062982296382892,0.0
1319,perov_1319.cif,0.251627654332,0.0036749309468000002,1.32,True,4.15372625270158,CrOsOFN,6.355158450616907,6.355158450616907,0.0
1320,perov_1320.cif,0.327466861058,0.0036749309468000002,1.48,True,0.7620229878337492,PtSiO2F,6.9008178784443786,6.9008178784443786,0.0
1321,perov_1321.cif,0.275950973381,0.0018374654734000001,1.18,True,-4.276080788478986e-05,GeTeON2,6.315951622091258,6.315951622091258,0.0
1322,perov_1322.cif,0.156564874392,0.0018374654734000001,2.14,True,5.075107331549369,OsYO3,5.816970939592197,5.816970939592197,0.0
1323,perov_1323.cif,0.10629140068600001,0.0018374654734000001,2.54,True,2.9999950809151517,BeLiO3,5.752140703945693,5.752140703945693,0.0
1324,perov_1324.cif,0.124661178617,0.0018374654734000001,1.22,True,3.18123884837588,NaNiO2N,5.52948112531335,5.52948112531335,0.0
1325,perov_1325.cif,0.169451574513,0.0018374654734000001,0.54,True,0.2644084010601162,MgAlO3,5.5231170313613935,5.5231170313613935,0.0
1326,perov_1326.cif,0.333988355322,0.0036749309468000002,1.1,True,3.0661751741779666e-14,HfMgO2F,5.9643794572761095,5.9643794572761095,0.0
1327,perov_1327.cif,0.206968209011,0.0018374654734000001,2.14,True,0.7683538547172899,RhAuON2,6.293635883638818,6.293635883638818,0.0
1328,perov_1328.cif,0.281440440846,0.0018374654734000001,0.12,True,0.9996855899513406,SnVO3,5.808061107433073,5.808061107433073,0.0
1329,perov_1329.cif,0.207244002412,0.0018374654734000001,1.16,True,0.005438255970478423,NbYON2,5.509889566375388,5.509889566375388,0.0
1330,perov_1330.cif,0.412674510626,0.0036749309468000002,1.02,True,2.4365191629997085e-12,HfAlOFN,5.74126913117684,5.74126913117684,0.0
1331,perov_1331.cif,0.201536997956,0.0036749309468000002,1.4,True,3.696894258107561,RuGaOFN,6.064968111024648,6.064968111024648,0.0
1332,perov_1332.cif,0.372525643183,0.0018374654734000001,0.38,True,0.0013020658703304375,YWON2,5.615926710561848,5.615926710561848,0.0
1333,perov_1333.cif,0.195578953277,0.0018374654734000001,2.04,True,0.006524613468435803,CuAgN3,5.979334412446204,5.979334412446204,0.0
1334,perov_1334.cif,0.0905660781061,0.0018374654734000001,0.44,True,0.9954056362029604,NaSnO3,5.542933251847702,5.542933251847702,0.0
1335,perov_1335.cif,0.21233435956399999,0.0018374654734000001,1.76,True,2.371064143045647,MoZnO2S,5.719538543577832,5.719538543577832,0.0
1336,perov_1336.cif,0.213694406358,0.0036749309468000002,2.06,True,2.751077474873085,TaTlO2F,6.678506863240278,6.678506863240278,0.0
1337,perov_1337.cif,0.145561384541,0.0036749309468000002,1.24,True,-2.124964492765616e-15,MgPbO2F,6.123564690792503,6.123564690792503,0.0
1338,perov_1338.cif,0.44553663947800004,0.0018374654734000001,0.74,True,0.0013115139163453193,LaIrN3,5.733638220886728,5.733638220886728,0.0
1339,perov_1339.cif,0.244690342645,0.0018374654734000001,0.52,True,-3.0503757527267976,FeNbO3,5.8640030929643165,5.8640030929643165,0.0
1340,perov_1340.cif,0.12212242659700001,0.0036749309468000002,1.16,True,-3.3903006414176316e-05,GeCdO2F,6.5469714636635095,6.5469714636635095,0.0
1341,perov_1341.cif,0.212057050484,0.0018374654734000001,0.96,True,3.5776709793258306,FeZrON2,5.674116429667821,5.674116429667821,0.0
1342,perov_1342.cif,0.218740963236,0.0018374654734000001,0.42,True,0.4828742685050749,InVO2S,5.236111744856611,5.236111744856611,0.0
1343,perov_1343.cif,0.12401524419500001,0.0018374654734000001,2.02,True,1.9062679246429293,AlLaO3,5.289070802777697,5.289070802777697,0.0
1344,perov_1344.cif,0.188818011867,0.0018374654734000001,2.2,True,1.3324446447352436,LaKO2S,4.811057297757297,4.811057297757297,0.0
1345,perov_1345.cif,0.224283317251,0.0018374654734000001,2.2,True,-1.1314835884567662,TaYO2N,5.576218470158646,5.576218470158646,0.0
1346,perov_1346.cif,0.230953041644,0.0018374654734000001,2.52,True,0.30507310193322823,LaCsO2S,4.7159183688349895,4.7159183688349895,0.0