,id,fermi level,fermi width,e_form,gap is direct,mu_b,formula,vbm,cbm,gap gllbsc
4589,perov_4589.cif,0.297084699287,0.0018374654734000001,1.4,True,0.002216809270329634,RhCoN3,5.892614481656334,5.892614481656334,0.0
4590,perov_4590.cif,0.268399655175,0.0018374654734000001,1.16,True,-0.006818590760678751,TaZnO2N,5.960101368150044,5.960101368150044,0.0
4591,perov_4591.cif,0.10018698548,0.0036749309468000002,1.4,True,0.8493662763977277,AgAuO2F,6.853617976846597,6.853617976846597,0.0
4592,perov_4592.cif,0.23492881760499998,0.0018374654734000001,0.52,True,0.5915974434991469,PbAlO3,5.563753909612948,5.563753909612948,0.0
4593,perov_4593.cif,0.145770673453,0.0036749309468000002,1.78,True,0.0,CrLaO2F,5.8118997291979575,5.8118997291979575,0.0
4594,perov_4594.cif,0.298478816939,0.0018374654734000001,0.36,True,-0.50697015169295,BaMoO2S,5.167921969609862,5.167921969609862,0.0
4595,perov_4595.cif,-0.00508322804908,0.0036749309468000002,2.72,True,0.0,CuRbO2F,5.732009620846053,5.732009620846053,0.0
4596,perov_4596.cif,0.187782968001,0.0018374654734000001,2.6,True,0.3328947062373935,ScRbN3,4.9603590250450615,4.9603590250450615,0.0
4597,perov_4597.cif,0.222445630454,0.0018374654734000001,1.38,True,0.7297108020872257,BiPbON2,5.764093862149216,5.764093862149216,0.0
4598,perov_4598.cif,0.376332509943,0.0018374654734000001,0.72,False,0.0001272490563498965,ZrGeON2,6.767609985618219,4.86760998561822,1.9
4599,perov_4599.cif,0.18955699394499997,0.0018374654734000001,1.68,True,-0.1512636334253574,InCsO2N,4.8908690429807535,4.8908690429807535,0.0
4600,perov_4600.cif,0.24927645394,0.0018374654734000001,1.84,True,0.3518774730941061,SiPtON2,6.3777161906031345,6.3777161906031345,0.0
4601,perov_4601.cif,0.180515554879,0.0018374654734000001,1.04,True,-0.0009026627690967797,InPbO2S,5.31787746979055,5.31787746979055,0.0
4602,perov_4602.cif,0.0601267174157,0.0036749309468000002,2.42,True,0.0,NiCaOFN,5.601845087888137,5.601845087888137,0.0
4603,perov_4603.cif,0.32006943442200003,0.0018374654734000001,0.66,True,0.04032627248998112,ZrTiO2S,5.361177214900797,5.361177214900797,0.0
4604,perov_4604.cif,0.0879426838178,0.0018374654734000001,0.72,True,0.9954259818081505,LiSnO3,5.6038174073068845,5.6038174073068845,0.0
4605,perov_4605.cif,0.259485410215,0.0018374654734000001,0.7,True,0.19209165046414253,OsTaON2,6.0310274166933455,6.0310274166933455,0.0
4606,perov_4606.cif,0.198761331028,0.0036749309468000002,0.38,True,-3.172333408882113,TlMnO2F,6.549847572559362,6.549847572559362,0.0
4607,perov_4607.cif,0.192837216198,0.0018374654734000001,2.52,True,3.5416785528669763,VMgN3,5.5333405561183735,5.5333405561183735,0.0
4608,perov_4608.cif,0.29815489210499996,0.0018374654734000001,1.02,True,-3.817765941680936,MoMoO2N,5.7471259570140365,5.7471259570140365,0.0
4609,perov_4609.cif,0.224812644851,0.0018374654734000001,4.38,True,2.3309271184133933,WRbON2,5.278450659935807,5.278450659935807,0.0
4610,perov_4610.cif,0.19849228829399998,0.0018374654734000001,1.44,True,4.481196003247462,FePdO3,5.990377543136872,5.990377543136872,0.0
4611,perov_4611.cif,0.315573953648,0.0018374654734000001,1.98,True,-1.1967541580180243,OsIrO2N,6.4031679899601075,6.4031679899601075,0.0
4612,perov_4612.cif,0.297790007088,0.0036749309468000002,1.14,True,0.6312961155457479,YSiO2F,6.172877571156622,6.172877571156622,0.0
4613,perov_4613.cif,-0.011292950736799999,0.0036749309468000002,2.02,True,0.0,GaNaO2F,5.574515200800649,5.574515200800649,0.0
4614,perov_4614.cif,0.21407111831300002,0.0018374654734000001,1.94,True,0.0,FeTiN3,5.574291454236508,5.574291454236508,0.0
4615,perov_4615.cif,0.135360433257,0.0018374654734000001,2.3,True,2.9999905300785006,SiMgO2N,5.934067973233667,5.934067973233667,0.0
4616,perov_4616.cif,0.387841491925,0.0036749309468000002,0.28,True,-2.424148401244321,LaVO2F,5.773910199865364,5.773910199865364,0.0
4617,perov_4617.cif,0.11515313840399999,0.0018374654734000001,3.84,True,4.408291325678653,BTlN3,6.184813010330527,6.184813010330527,0.0
4618,perov_4618.cif,0.18551716127999998,0.0018374654734000001,1.1,True,-0.00879310729277151,AsLaO2S,5.627721922953882,5.627721922953882,0.0
4619,perov_4619.cif,0.18229652831300003,0.0036749309468000002,0.46,True,0.6650192827510537,LiMoO2F,5.863195250809162,5.863195250809162,0.0
4620,perov_4620.cif,0.0170847825504,0.0036749309468000002,2.0,True,0.0,InKO2F,5.360972116099616,5.360972116099616,0.0
4621,perov_4621.cif,0.34912332534400004,0.0036749309468000002,0.86,True,0.011194504103443135,SrReOFN,5.394993142217051,5.394993142217051,0.0
4622,perov_4622.cif,0.235388778567,0.0018374654734000001,0.84,True,0.009617268629511951,RuMoN3,5.8314434799802175,5.8314434799802175,0.0
4623,perov_4623.cif,0.122281871899,0.0018374654734000001,3.28,True,0.3207394257524001,MgCsON2,5.045077430936896,5.045077430936896,0.0
4624,perov_4624.cif,0.101486327341,0.0036749309468000002,2.52,True,-0.8337915280628658,AlHgOFN,6.251599249921916,6.251599249921916,0.0
4625,perov_4625.cif,0.26402762088599996,0.0018374654734000001,0.78,True,0.0005016197856591019,SbAsO3,6.428068666276706,6.428068666276706,0.0
4626,perov_4626.cif,0.35710535299999996,0.0018374654734000001,0.58,True,0.00016833682846240094,ScReON2,5.563536318793037,5.563536318793037,0.0
4627,perov_4627.cif,0.172861560088,0.0018374654734000001,1.3,True,1.8652508316563426e-05,SnAuO2S,6.143345225027252,6.143345225027252,0.0
4628,perov_4628.cif,0.20952016965700002,0.0018374654734000001,1.64,True,-0.002691095208883907,TlGaON2,5.873773886305325,5.873773886305325,0.0
4629,perov_4629.cif,0.20713262876699998,0.0018374654734000001,0.68,False,-0.0001641934635469284,SbGaO2S,6.043123523812125,5.1431235238121245,0.9
4630,perov_4630.cif,0.252531771822,0.0018374654734000001,2.2,True,-0.3852705985757242,ZrHgO2S,5.824121745523133,5.824121745523133,0.0
4631,perov_4631.cif,0.318752471621,0.0036749309468000002,1.74,True,3.3726081781416566,OsReOFN,6.451291557003069,6.451291557003069,0.0
4632,perov_4632.cif,0.13620702132,0.0018374654734000001,0.84,True,0.5197781229354348,CuYO2S,5.501610077268926,5.501610077268926,0.0
4633,perov_4633.cif,0.130051831979,0.0018374654734000001,1.08,True,1.5957635474038625,GaScO3,5.393321066122725,5.393321066122725,0.0
4634,perov_4634.cif,0.315997240293,0.0018374654734000001,1.24,True,2.6663066007820144,WSbON2,6.1067711134057285,6.1067711134057285,0.0
4635,perov_4635.cif,0.224444886661,0.0036749309468000002,0.98,True,3.578938686372014e-15,PtZrOFN,6.494524194974821,6.494524194974821,0.0
4636,perov_4636.cif,0.228796720963,0.0036749309468000002,0.6,True,-1.2845449194899308e-14,BaTlO2F,6.134081813180821,6.134081813180821,0.0
4637,perov_4637.cif,0.09984193472380001,0.0018374654734000001,2.38,True,-6.616080491940175e-05,LiZnON2,5.563627702443342,5.563627702443342,0.0
4638,perov_4638.cif,0.276582536776,0.0018374654734000001,0.8,True,-1.1036649315262397,WVO3,5.834827500261499,5.834827500261499,0.0
4639,perov_4639.cif,0.33157207474399997,0.0018374654734000001,1.22,True,0.587514853570557,ScAsO3,5.965975327681055,5.965975327681055,0.0
4640,perov_4640.cif,0.165371730567,0.0018374654734000001,1.16,True,2.999986538085704,CaMgO2N,5.085289271516841,5.085289271516841,0.0
4641,perov_4641.cif,0.317164501309,0.0018374654734000001,0.82,True,0.2723292443672101,SrIrO2N,5.354749059015765,5.354749059015765,0.0
4642,perov_4642.cif,0.23650920435400002,0.0018374654734000001,0.84,True,-0.8156081261834747,FeMnO2S,5.562754095031256,5.562754095031256,0.0
4643,perov_4643.cif,0.152174243417,0.0036749309468000002,1.46,True,3.0178635709336663,VTlO2F,6.507034441212362,6.507034441212362,0.0
4644,perov_4644.cif,0.123846046221,0.0018374654734000001,1.64,True,-2.340072941383226,RuNaO2N,5.554389706530175,5.554389706530175,0.0
4645,perov_4645.cif,0.243769947304,0.0018374654734000001,1.32,True,-2.7182768291549317,CrPtO2N,6.113705287908428,6.113705287908428,0.0
4646,perov_4646.cif,0.19331683378400003,0.0018374654734000001,0.64,True,0.4983309553843825,MgTiO2N,5.564100237351772,5.564100237351772,0.0
4647,perov_4647.cif,0.0855134696397,0.0018374654734000001,3.08,True,0.00029761036303454217,LiLiON2,5.1451656058031725,5.1451656058031725,0.0
4648,perov_4648.cif,0.278353645717,0.0018374654734000001,-0.16,True,1.9999957045489012,SrCrO3,5.01639322730436,5.01639322730436,0.0
4649,perov_4649.cif,0.10461221697699999,0.0018374654734000001,1.18,True,1.9999980797253405,InLiO3,5.2488314093799415,5.2488314093799415,0.0
4650,perov_4650.cif,0.0697558802426,0.0036749309468000002,1.36,True,4.50095493126692e-16,CdBaO2F,5.876460759069389,5.876460759069389,0.0
4651,perov_4651.cif,0.19995796231199997,0.0018374654734000001,1.4,True,2.2248052155819638,CoAlN3,5.557959068677863,5.557959068677863,0.0
4652,perov_4652.cif,0.29429360929000004,0.0036749309468000002,0.68,True,0.9927759820265182,ScScO2F,5.803723626041341,5.803723626041341,0.0
4653,perov_4653.cif,0.192851775409,0.0036749309468000002,1.86,True,0.0,TiYOFN,5.747486752657845,5.747486752657845,0.0
4654,perov_4654.cif,0.126238542535,0.0018374654734000001,4.24,True,4.7308791724478825,RhRbON2,5.254236562109782,5.254236562109782,0.0
4655,perov_4655.cif,0.320721988307,0.0018374654734000001,1.32,True,1.1888424543961056,NbBO2S,5.70662748962949,5.70662748962949,0.0
4656,perov_4656.cif,0.27073621826600003,0.0018374654734000001,0.76,True,4.336291640079951,MoNbO3,5.8170380608110985,5.8170380608110985,0.0
4657,perov_4657.cif,0.193432908716,0.0018374654734000001,-0.36,False,-7.412855425925376e-05,RbNbO3,6.962089950432032,3.5420899504320325,3.4
4658,perov_4658.cif,0.31735589292399996,0.0036749309468000002,1.42,True,-3.9890335317422184e-16,TeBeOFN,6.8724202400639065,6.8724202400639065,0.0
4659,perov_4659.cif,0.206394623803,0.0018374654734000001,1.38,True,0.020636154705764298,BeOsO2S,6.100663280617845,6.100663280617845,0.0
4660,perov_4660.cif,0.191662616313,0.0018374654734000001,0.26,True,-0.7542008228445132,SrGaO3,4.867578683267178,4.867578683267178,0.0
4661,perov_4661.cif,0.421299384143,0.0036749309468000002,0.38,True,1.5912009589989076,LaTiO2F,5.724971697363429,5.724971697363429,0.0
4662,perov_4662.cif,0.240950176705,0.0018374654734000001,1.7,True,2.7779641251043112,NiSbON2,6.1067711134057285,6.1067711134057285,0.0
4663,perov_4663.cif,0.250611014636,0.0018374654734000001,2.1,True,-3.0438773024014205,ReScO2N,5.602773173367408,5.602773173367408,0.0
4664,perov_4664.cif,0.216375207009,0.0018374654734000001,0.9,True,0.0023182974943907197,SnZnO3,6.059582170020341,6.059582170020341,0.0
4665,perov_4665.cif,0.343522196752,0.0018374654734000001,1.04,True,0.002272303595272973,BiIrO3,6.2280716685704265,6.2280716685704265,0.0
4666,perov_4666.cif,0.19649980917399998,0.0036749309468000002,1.08,True,1.116352016138528,KIrO2F,5.976947773418062,5.976947773418062,0.0
4667,perov_4667.cif,0.263787381918,0.0018374654734000001,0.22,True,-4.591313058647495,MnNbO3,5.762322648222786,5.762322648222786,0.0
4668,perov_4668.cif,0.148671246136,0.0036749309468000002,1.12,True,-1.1112504013612246e-12,MgCuO2F,6.298976567084223,6.298976567084223,0.0
4669,perov_4669.cif,0.269221827314,0.0018374654734000001,1.74,True,1.893833768311424,RhSbON2,6.078757220188256,6.078757220188256,0.0
4670,perov_4670.cif,0.166876061182,0.0018374654734000001,0.84,True,0.9999996627111188,BeVO2S,5.738201353576307,5.738201353576307,0.0
4671,perov_4671.cif,0.271870445513,0.0018374654734000001,1.02,True,3.73627296068368,CrBeO2S,5.775955936015621,5.775955936015621,0.0
4672,perov_4672.cif,0.0812888181442,0.0036749309468000002,1.08,True,-0.8250470605766159,CdCaO2F,5.6490239732275525,5.6490239732275525,0.0
4673,perov_4673.cif,0.08556896546250001,0.0018374654734000001,4.34,True,0.0,NiRbON2,5.278450659935807,5.278450659935807,0.0
4674,perov_4674.cif,0.353113590102,0.0018374654734000001,0.94,True,0.585880341380328,LaCuO2N,5.6141222330262215,5.6141222330262215,0.0
4675,perov_4675.cif,0.11690698000399999,0.0018374654734000001,2.62,True,0.01105341016024397,BeTlO3,6.4868024283444345,6.4868024283444345,0.0
4676,perov_4676.cif,0.299548653049,0.0018374654734000001,0.68,True,-2.4736492550763588e-05,LaPdO2S,5.434373179633653,5.434373179633653,0.0
4677,perov_4677.cif,0.20808391463300002,0.0018374654734000001,1.42,True,-2.6289200584731877e-05,BiHgO2S,5.9673090724421085,5.9673090724421085,0.0
4678,perov_4678.cif,0.18074253113400002,0.0018374654734000001,1.98,True,-0.3786514763100296,YSrO2N,4.830465764096131,4.830465764096131,0.0
4679,perov_4679.cif,0.194963000358,0.0018374654734000001,2.2,True,-0.7106917549142299,InHgON2,5.778022104437765,5.778022104437765,0.0
4680,perov_4680.cif,0.176842074146,0.0018374654734000001,1.86,True,4.606721296811255,TlScN3,5.882804402602368,5.882804402602368,0.0
4681,perov_4681.cif,0.26813948006099997,0.0018374654734000001,0.62,True,1.9964406084721635,NbScO3,5.639469826561655,5.639469826561655,0.0
4682,perov_4682.cif,0.143474348229,0.0036749309468000002,2.48,True,2.000364937498356,WCaOFN,5.601845087888137,5.601845087888137,0.0
4683,perov_4683.cif,0.301537067955,0.0036749309468000002,1.2,True,-3.731075163773911e-06,LaHgO2F,6.219330348276093,6.219330348276093,0.0
4684,perov_4684.cif,0.353087809712,0.0018374654734000001,1.08,True,2.6444757100690666,BiFeON2,5.813615842573414,5.813615842573414,0.0
4685,perov_4685.cif,0.173438489956,0.0018374654734000001,2.26,True,0.00011752464999403855,YNaON2,5.148727038829043,5.148727038829043,0.0
4686,perov_4686.cif,0.250347872357,0.0018374654734000001,0.76,True,2.9436866954303933,InFeO2S,5.363565800039055,5.363565800039055,0.0
4687,perov_4687.cif,0.244133216867,0.0018374654734000001,0.96,True,-0.00028404273859583925,AuMoON2,6.171927894245881,6.171927894245881,0.0
4688,perov_4688.cif,0.27157413021,0.0018374654734000001,0.94,True,0.00503277090228238,SbTaN3,5.97896161948974,5.97896161948974,0.0
4689,perov_4689.cif,0.295473033559,0.0018374654734000001,1.24,True,0.0022582024065087576,GaSiON2,5.708528134160912,5.708528134160912,0.0
4690,perov_4690.cif,0.258622950877,0.0036749309468000002,1.08,True,1.1284938969244684e-15,BiPdO2F,6.406908223781048,6.406908223781048,0.0
4691,perov_4691.cif,0.473808952864,0.0018374654734000001,1.98,True,0.00834254789451272,ReBN3,5.808192203005617,5.808192203005617,0.0
4692,perov_4692.cif,0.219181711435,0.0018374654734000001,1.56,True,0.7836160331749688,IrBiO3,6.2280716685704265,6.2280716685704265,0.0
4693,perov_4693.cif,0.254348874128,0.0036749309468000002,1.08,True,-2.3765195582752987e-15,AsBeO2F,6.87230659220658,6.87230659220658,0.0
4694,perov_4694.cif,0.0878616274168,0.0036749309468000002,1.92,True,0.0,FeNaOFN,5.805373979583867,5.805373979583867,0.0
4695,perov_4695.cif,0.182051275192,0.0036749309468000002,0.4,True,1.5263917966114957,ZnVO2F,6.239368538940773,6.239368538940773,0.0
4696,perov_4696.cif,0.16330759832,0.0018374654734000001,3.58,True,4.83841065992085,PtBaN3,5.645711015690954,5.645711015690954,0.0
4697,perov_4697.cif,0.30981023308899996,0.0018374654734000001,1.3,True,0.8746669451543543,TaLiO2N,5.51181894378712,5.51181894378712,0.0
4698,perov_4698.cif,0.147366760721,0.0018374654734000001,2.06,True,1.0433139953025117,MgHgO2N,6.044567431302588,6.044567431302588,0.0
4699,perov_4699.cif,0.20179938631900002,0.0018374654734000001,1.66,True,-1.0948547377138826,CoPdO2N,6.017146230347339,6.017146230347339,0.0
4700,perov_4700.cif,0.237584707156,0.0018374654734000001,1.68,True,0.002123868601746207,AgAsON2,6.227367954902174,6.227367954902174,0.0
4701,perov_4701.cif,0.24554072351,0.0018374654734000001,0.7,True,-0.004797103063689753,IrNbO2N,6.15099143551333,6.15099143551333,0.0
4702,perov_4702.cif,0.206761562153,0.0018374654734000001,1.12,True,2.5916118195192186,CoCuO2S,5.8401682823754175,5.8401682823754175,0.0
4703,perov_4703.cif,0.226553394528,0.0018374654734000001,0.62,True,2.1669679713296586,VMoO2S,5.482132007677237,5.482132007677237,0.0
4704,perov_4704.cif,0.257092316595,0.0018374654734000001,1.06,True,3.8353357136688473,MnAsON2,6.01085873529837,6.01085873529837,0.0
4705,perov_4705.cif,0.24640170741999998,0.0018374654734000001,0.5,True,0.4900307829207228,ScTaN3,5.549153152977889,5.549153152977889,0.0
4706,perov_4706.cif,0.245890364017,0.0018374654734000001,1.48,True,0.0435507218571658,TiCuON2,5.72522002189895,5.72522002189895,0.0
4707,perov_4707.cif,0.07974003700960001,0.0036749309468000002,2.84,True,2.0002288825209145,WBaOFN,5.827382392670582,5.827382392670582,0.0
4708,perov_4708.cif,0.302784398768,0.0018374654734000001,0.88,True,-0.18313652775217004,BiGeON2,5.960637219473371,5.960637219473371,0.0
4709,perov_4709.cif,0.265022350451,0.0018374654734000001,1.5,True,-0.0004943493975871168,ZrPbON2,5.6257827436514685,5.6257827436514685,0.0
4710,perov_4710.cif,0.16835473773200002,0.0018374654734000001,1.92,True,1.6416022228518123,BeAlO2N,5.785822354773173,5.785822354773173,0.0
4711,perov_4711.cif,0.234619333801,0.0018374654734000001,0.9,True,-0.3702828574191402,InTiON2,5.3187419162925655,5.3187419162925655,0.0
4712,perov_4712.cif,0.282826889227,0.0018374654734000001,0.56,True,0.12998373367627636,BiTiO2S,5.492982947693152,5.492982947693152,0.0
4713,perov_4713.cif,0.23853099949200002,0.0018374654734000001,0.7,True,0.0006466955468518165,InGeO2S,5.499205795932936,5.499205795932936,0.0
4714,perov_4714.cif,0.148472727561,0.0036749309468000002,1.4,True,1.6737825296417022,AuZnO2F,6.856702414628997,6.856702414628997,0.0
4715,perov_4715.cif,0.10863591089000002,0.0036749309468000002,1.38,True,-1.0925009535325514,CuInOFN,6.021212643185781,6.021212643185781,0.0
4716,perov_4716.cif,0.394155391833,0.0018374654734000001,1.26,True,-0.8241071665466105,ZrWO3,5.847736536892554,5.847736536892554,0.0
4717,perov_4717.cif,0.185980650726,0.0018374654734000001,1.72,True,-1.4639538318283634,CdInON2,5.591467997723154,5.591467997723154,0.0
4718,perov_4718.cif,0.285607138006,0.0036749309468000002,0.58,True,3.257635867726094e-07,BaSnOFN,5.800650153152503,5.800650153152503,0.0
4719,perov_4719.cif,0.13165892643899998,0.0018374654734000001,1.54,True,-0.9381511107791818,CrMgON2,5.609027911058131,5.609027911058131,0.0
4720,perov_4720.cif,0.142966003705,0.0018374654734000001,3.54,True,6.6624841588748565,RuSrON2,5.138321349612091,5.138321349612091,0.0
4721,perov_4721.cif,0.20342155811700002,0.0036749309468000002,1.34,True,0.7127571332627981,AsRuO2F,6.756251583067832,6.756251583067832,0.0
4722,perov_4722.cif,0.161988785952,0.0018374654734000001,1.78,True,1.2992763110902956,CuBiO2N,5.971024316684043,5.971024316684043,0.0
4723,perov_4723.cif,0.194209522375,0.0018374654734000001,1.14,True,0.7168715336868862,SrBO2S,4.967907775618098,4.967907775618098,0.0
4724,perov_4724.cif,0.242338498085,0.0018374654734000001,1.8,True,2.414051531388849,ZnGeN3,6.013734008439901,6.013734008439901,0.0
4725,perov_4725.cif,0.339041560132,0.0018374654734000001,1.54,True,0.011010784461383594,RuLaN3,5.5406987477577765,5.5406987477577765,0.0
4726,perov_4726.cif,0.0745581950912,0.0036749309468000002,1.72,True,0.0,KHgOFN,5.908172911613676,5.908172911613676,0.0
4727,perov_4727.cif,0.31133704911,0.0018374654734000001,0.44,True,1.0002820276655182,NbCrO3,5.762322648222786,5.762322648222786,0.0
4728,perov_4728.cif,0.303308987074,0.0018374654734000001,1.38,True,-0.5379576950635323,TlCrN3,6.010958137326906,6.010958137326906,0.0
4729,perov_4729.cif,0.322868618794,0.0018374654734000001,1.2,True,0.5813735415133044,SbNiO2N,6.149839132803083,6.149839132803083,0.0
4730,perov_4730.cif,0.274249058803,0.0018374654734000001,1.54,True,0.06230583436913406,TePtO3,6.655221183479855,6.655221183479855,0.0
4731,perov_4731.cif,0.143202880172,0.0018374654734000001,2.42,True,0.0,KBiN3,5.205375744792179,5.205375744792179,0.0
4732,perov_4732.cif,0.15829027201999998,0.0036749309468000002,1.9,True,3.631142982468551,MoLaOFN,5.825998028272514,5.825998028272514,0.0
4733,perov_4733.cif,0.358421699119,0.0018374654734000001,1.04,True,-0.0015583730231047313,AlSiO3,5.792944700573536,5.792944700573536,0.0
4734,perov_4734.cif,0.116547303577,0.0018374654734000001,1.96,True,3.204663685709916,GaCdO2N,5.666770358652086,5.666770358652086,0.0
4735,perov_4735.cif,0.11528575469,0.0036749309468000002,2.58,True,2.9060425834814048,SiLiOFN,6.058857146428268,6.058857146428268,0.0