,id,fermi level,fermi width,e_form,gap is direct,mu_b,formula,vbm,cbm,gap gllbsc
3998,perov_3998.cif,-0.0259019351875,0.0036749309468000002,3.3,True,0.0,NiKOFN,5.709651904728816,5.709651904728816,0.0
3999,perov_3999.cif,0.269764820586,0.0018374654734000001,0.68,True,-0.0013358793226351995,InWN3,5.544769801929719,5.544769801929719,0.0
4000,perov_4000.cif,0.170623767795,0.0018374654734000001,1.2,True,-0.5999586379308623,PbCuO2S,5.72428951116933,5.72428951116933,0.0
4001,perov_4001.cif,0.212228180252,0.0036749309468000002,1.7,True,0.6302302454378079,AuBO2F,6.806670967621495,6.806670967621495,0.0
4002,perov_4002.cif,0.022989786998,0.0018374654734000001,2.66,True,0.0,NiBaO2S,5.294117323536816,5.294117323536816,0.0
4003,perov_4003.cif,0.186239647092,0.0018374654734000001,1.38,True,0.9972674841498056,AuSnON2,6.293635883638818,6.293635883638818,0.0
4004,perov_4004.cif,0.165680507367,0.0036749309468000002,1.0,True,4.50275700907352,CsCoO2F,5.610358978673107,5.610358978673107,0.0
4005,perov_4005.cif,0.241162444769,0.0018374654734000001,1.62,True,0.005839159937409022,BReO3,5.931947772903283,5.931947772903283,0.0
4006,perov_4006.cif,0.334063865285,0.0018374654734000001,1.42,True,0.004274137889325403,TlSiON2,6.359289833598084,6.359289833598084,0.0
4007,perov_4007.cif,0.293379426083,0.0018374654734000001,1.04,True,2.3804031624052858e-05,SbSiO2S,6.055441399602399,6.055441399602399,0.0
4008,perov_4008.cif,0.174641129567,0.0018374654734000001,2.68,True,0.8701321795242443,CaSrN3,4.4219230608623565,4.4219230608623565,0.0
4009,perov_4009.cif,0.30081486051,0.0018374654734000001,1.7,True,-0.010034011039302114,PdIrON2,6.239546321251634,6.239546321251634,0.0
4010,perov_4010.cif,0.23178683551600002,0.0018374654734000001,0.56,True,-0.00835256864379447,RhWON2,5.961519735228051,5.961519735228051,0.0
4011,perov_4011.cif,0.131644543458,0.0036749309468000002,1.16,True,1.4089282032170762,TeLaO2F,6.282376991086434,6.282376991086434,0.0
4012,perov_4012.cif,0.21298644938,0.0018374654734000001,0.46,False,-9.654531218833492e-05,PdTaO2N,6.2601013681500435,5.660101368150044,0.6
4013,perov_4013.cif,0.192842196562,0.0018374654734000001,1.42,True,0.004079130590124432,RuYON2,5.641224702074541,5.641224702074541,0.0
4014,perov_4014.cif,0.0831524697557,0.0036749309468000002,1.5,True,1.992092580490876,CuYOFN,6.0557754459052715,6.0557754459052715,0.0
4015,perov_4015.cif,0.334807291008,0.0018374654734000001,0.74,True,2.2150944016485847,YMnON2,5.430495825353278,5.430495825353278,0.0
4016,perov_4016.cif,0.190118123432,0.0036749309468000002,1.54,True,-0.5743475008823221,SnAuOFN,6.762151197001471,6.762151197001471,0.0
4017,perov_4017.cif,0.314329839456,0.0018374654734000001,0.62,True,-1.2737955960953442,NbTiO2N,5.636385512371769,5.636385512371769,0.0
4018,perov_4018.cif,0.26144227741,0.0036749309468000002,0.8,True,-2.806987727597749e-16,SbGaOFN,6.156506845397977,6.156506845397977,0.0
4019,perov_4019.cif,0.257017156138,0.0036749309468000002,2.28,True,0.7865899433671721,ZrHgOFN,6.410773021924197,6.410773021924197,0.0
4020,perov_4020.cif,0.277866048019,0.0018374654734000001,1.42,True,2.988319049885085,PbGeN3,5.854126909554618,5.854126909554618,0.0
4021,perov_4021.cif,0.304918799172,0.0018374654734000001,1.32,True,0.0013939000517417806,OsReO2S,5.860932420373505,5.860932420373505,0.0
4022,perov_4022.cif,0.2274129041,0.0018374654734000001,2.44,True,-0.6160807979684811,TiAgO2N,5.755264473403879,5.755264473403879,0.0
4023,perov_4023.cif,0.16111730664100002,0.0018374654734000001,2.04,True,-0.03319493013399402,RhAuO3,6.382720682566039,6.382720682566039,0.0
4024,perov_4024.cif,0.33867407729099996,0.0018374654734000001,2.28,True,0.3191661453708861,HfAuN3,5.966321953124727,5.966321953124727,0.0
4025,perov_4025.cif,0.105706330837,0.0018374654734000001,2.64,True,0.016701570991925152,BeCdO3,6.214367705382023,6.214367705382023,0.0
4026,perov_4026.cif,0.03827338365269999,0.0018374654734000001,1.9,True,2.9999999937781467,MgNaO3,5.3932706037163625,5.3932706037163625,0.0
4027,perov_4027.cif,0.22603600357700002,0.0036749309468000002,1.1,True,6.90750330017574,FeMnOFN,6.123078369272919,6.123078369272919,0.0
4028,perov_4028.cif,0.372289780063,0.0018374654734000001,1.2,True,-0.0003071122249771464,TaNiN3,5.863648834729293,5.863648834729293,0.0
4029,perov_4029.cif,0.24005561000199999,0.0018374654734000001,1.14,True,0.039447745785974334,GaFeN3,5.4910556972217694,5.4910556972217694,0.0
4030,perov_4030.cif,0.17786373744800002,0.0018374654734000001,0.9,True,-0.0001670905012309646,PtZrO2S,5.900208829952588,5.900208829952588,0.0
4031,perov_4031.cif,0.11966355128699999,0.0018374654734000001,2.28,True,1.9975720587044383,AgBaO2N,5.471777452304419,5.471777452304419,0.0
4032,perov_4032.cif,0.111998732588,0.0018374654734000001,2.3,True,1.9998773695240004,BHfO2N,5.702525117882563,5.702525117882563,0.0
4033,perov_4033.cif,0.193674835075,0.0018374654734000001,1.5,True,-4.745731626472477,MnBaO2N,5.28153812894606,5.28153812894606,0.0
4034,perov_4034.cif,0.218390803962,0.0018374654734000001,0.96,True,0.0031749458989711607,AlCrN3,5.399210266942712,5.399210266942712,0.0
4035,perov_4035.cif,0.139262752013,0.0036749309468000002,1.3,True,5.425841641700852e-15,InAgO2F,6.052810386253665,6.052810386253665,0.0
4036,perov_4036.cif,0.226642936589,0.0036749309468000002,1.52,True,2.5510966983881667,MoRuO2F,6.354239215988125,6.354239215988125,0.0
4037,perov_4037.cif,0.322651161382,0.0018374654734000001,0.64,True,-0.1322971765802291,ZrNbO3,5.7373224744795355,5.7373224744795355,0.0
4038,perov_4038.cif,0.26391931267700003,0.0036749309468000002,1.42,True,0.0,NbCuO2F,6.380808891103048,6.380808891103048,0.0
4039,perov_4039.cif,0.29568242281999996,0.0018374654734000001,0.74,True,-9.7843659626253e-15,SrReO2S,4.901296110325154,4.901296110325154,0.0
4040,perov_4040.cif,0.20048952060800002,0.0018374654734000001,1.58,True,1.3587948216230838,AlGaN3,5.239039208250069,5.239039208250069,0.0
4041,perov_4041.cif,0.12406761837000001,0.0018374654734000001,1.7,True,-0.2274904904715108,AgCaO2N,5.260003133098203,5.260003133098203,0.0
4042,perov_4042.cif,0.11849797407,0.0018374654734000001,2.42,True,0.007690349101917349,AlHgO2S,5.679514001080299,5.679514001080299,0.0
4043,perov_4043.cif,0.11338810128900001,0.0018374654734000001,2.9,True,0.0,MnCaO2N,5.077126646321127,5.077126646321127,0.0
4044,perov_4044.cif,0.352224116304,0.0018374654734000001,0.8,True,-7.099624643894438e-06,TlSiO3,6.449303947318697,6.449303947318697,0.0
4045,perov_4045.cif,0.385102869873,0.0018374654734000001,0.78,True,-0.0024068250962374148,NbSiN3,5.927260781848518,5.927260781848518,0.0
4046,perov_4046.cif,0.17499428073800002,0.0018374654734000001,1.1,True,1.1190851721639132,ZnHfO2N,5.744440701080495,5.744440701080495,0.0
4047,perov_4047.cif,0.340470101343,0.0018374654734000001,1.72,True,2.122029315557896,ReVN3,5.608026035486872,5.608026035486872,0.0
4048,perov_4048.cif,0.202673853442,0.0018374654734000001,2.46,True,3.6684900391360857,HgAuN3,6.496656574484897,6.496656574484897,0.0
4049,perov_4049.cif,0.0700305779436,0.0018374654734000001,2.26,True,0.0,BeYO3,5.819348125077336,5.819348125077336,0.0
4050,perov_4050.cif,0.146988291122,0.0018374654734000001,2.0,True,1.031497082473367,LiRhON2,5.525603903727078,5.525603903727078,0.0
4051,perov_4051.cif,0.158869310962,0.0018374654734000001,1.1,True,0.014442527235086544,LiRuO2N,5.615399700879383,5.615399700879383,0.0
4052,perov_4052.cif,0.109175036742,0.0036749309468000002,1.64,True,0.002944059134989629,AsLaOFN,6.194590266986861,6.194590266986861,0.0
4053,perov_4053.cif,0.151443669648,0.0018374654734000001,2.3,True,1.9998785623455115,SiHgO3,6.38458211306411,6.38458211306411,0.0
4054,perov_4054.cif,0.0138315113375,0.0036749309468000002,1.24,True,0.0,NaCdO2F,5.949190196805135,5.949190196805135,0.0
4055,perov_4055.cif,0.232426957389,0.0036749309468000002,1.3,True,2.206954941382769,CrBeOFN,6.357755573858787,6.357755573858787,0.0
4056,perov_4056.cif,0.273384640253,0.0018374654734000001,1.1,True,0.0005617316603903079,ScRhO3,5.721632638775503,5.721632638775503,0.0
4057,perov_4057.cif,0.173394546624,0.0036749309468000002,1.52,True,0.838791751725779,BeVOFN,6.3161980534065405,6.3161980534065405,0.0
4058,perov_4058.cif,0.205895480795,0.0036749309468000002,1.24,True,3.8030994629698774e-15,BiHgOFN,6.568383300795723,6.568383300795723,0.0
4059,perov_4059.cif,0.238847598268,0.0018374654734000001,2.62,True,0.2243262820700291,NbCsON2,5.110619889561983,5.110619889561983,0.0
4060,perov_4060.cif,0.164085703419,0.0018374654734000001,1.66,True,3.3900060118120905,GaGaON2,5.272696222543772,5.272696222543772,0.0
4061,perov_4061.cif,0.29936099433400004,0.0018374654734000001,1.46,True,0.08310210242744276,TePtO2N,6.608613916389741,6.608613916389741,0.0
4062,perov_4062.cif,0.139695164678,0.0018374654734000001,2.6,True,-0.5623294628868198,ScKO3,5.1002251943917045,5.1002251943917045,0.0
4063,perov_4063.cif,0.33964035016800004,0.0036749309468000002,1.14,True,3.5725685294015236e-17,LaPdOFN,5.9817659199592494,5.9817659199592494,0.0
4064,perov_4064.cif,0.238441940448,0.0018374654734000001,1.12,True,0.6484548049066472,GeNiO2N,6.08508955651368,6.08508955651368,0.0
4065,perov_4065.cif,0.226743351342,0.0018374654734000001,1.54,True,0.23022015367367035,AuRuO3,6.4410200507455935,6.4410200507455935,0.0
4066,perov_4066.cif,0.127572471362,0.0018374654734000001,1.22,True,1.7747242804233403,LiVON2,5.332692711829324,5.332692711829324,0.0
4067,perov_4067.cif,-0.0411603968385,0.0018374654734000001,2.86,True,0.0,LiKO2N,4.960223493125966,4.960223493125966,0.0
4068,perov_4068.cif,0.163049863926,0.0018374654734000001,1.04,True,1.003394210985668,TiYO2S,5.22153295145262,5.22153295145262,0.0
4069,perov_4069.cif,0.194128487026,0.0018374654734000001,1.68,True,0.001703004130797936,NaTeON2,5.739263976051447,5.739263976051447,0.0
4070,perov_4070.cif,0.379750666583,0.0036749309468000002,1.44,True,1.7579143373958053,NbBOFN,6.281443821947736,6.281443821947736,0.0
4071,perov_4071.cif,0.0941008910233,0.0018374654734000001,0.82,True,1.0734079477641103,KPbO3,5.258113775618372,5.258113775618372,0.0
4072,perov_4072.cif,0.126251650113,0.0036749309468000002,0.54,False,-4.906847344482979e-15,LiSnO2F,6.678815153961223,5.278815153961221,1.4
4073,perov_4073.cif,0.257677664783,0.0018374654734000001,1.98,True,2.6703213971646242,FeCaN3,5.094603497299431,5.094603497299431,0.0
4074,perov_4074.cif,0.330445820308,0.0036749309468000002,0.6,True,3.939374246766888e-16,SrWO2F,5.534834901085676,5.534834901085676,0.0
4075,perov_4075.cif,0.23548479621399998,0.0018374654734000001,1.62,True,1.6808929852246948,AsAlON2,5.836183520924388,5.836183520924388,0.0
4076,perov_4076.cif,0.276281468705,0.0018374654734000001,0.98,True,0.005922633305672775,SbRhO3,6.164800466842487,6.164800466842487,0.0
4077,perov_4077.cif,0.145891089959,0.0018374654734000001,2.08,True,-0.09139960971724156,TeBaO3,5.749345573892317,5.749345573892317,0.0
4078,perov_4078.cif,0.0955509762611,0.0018374654734000001,3.72,True,4.910517216261702,BCdN3,5.925061331802257,5.925061331802257,0.0
4079,perov_4079.cif,0.205086050996,0.0036749309468000002,1.78,True,-3.5126201379441946e-17,BeOsOFN,6.715169991989157,6.715169991989157,0.0
4080,perov_4080.cif,0.28591689123,0.0036749309468000002,0.28,True,-3.4689828792017516e-16,CsHfO2F,5.356089619730217,5.356089619730217,0.0
4081,perov_4081.cif,0.24431081862799997,0.0018374654734000001,1.14,True,0.00038663464536448083,TeBeO2S,6.243523523238971,6.243523523238971,0.0
4082,perov_4082.cif,0.027671838829799997,0.0036749309468000002,1.74,True,0.0,TlNaO2F,6.209999672516334,6.209999672516334,0.0
4083,perov_4083.cif,0.268827614745,0.0018374654734000001,0.98,True,-2.7081843458997112,MoSnO2N,5.86045701936625,5.86045701936625,0.0
4084,perov_4084.cif,0.203579104384,0.0018374654734000001,0.36,False,2.1592828517214002e-05,CdHfO3,6.284744052662652,5.274744052662651,1.0
4085,perov_4085.cif,0.119613529495,0.0018374654734000001,2.98,True,-2.3232181406681014,WBaO2S,5.294117323536816,5.294117323536816,0.0
4086,perov_4086.cif,0.324116635536,0.0036749309468000002,0.58,True,0.20448087106289486,BiTiOFN,6.046279324093682,6.046279324093682,0.0
4087,perov_4087.cif,0.268953662243,0.0036749309468000002,0.72,True,-1.7703059998731767e-15,InGeOFN,6.0531289864733875,6.0531289864733875,0.0
4088,perov_4088.cif,0.165477475101,0.0036749309468000002,0.44,True,3.1663360339544955,GaMnO2F,5.879585633112344,5.879585633112344,0.0
4089,perov_4089.cif,0.10433588155,0.0018374654734000001,1.96,True,1.7614673991653265,AuYO2N,5.970602684562224,5.970602684562224,0.0
4090,perov_4090.cif,0.286680949333,0.0018374654734000001,1.64,True,0.02751005358242509,HfPtO3,6.050606374037622,6.050606374037622,0.0
4091,perov_4091.cif,0.28144859202,0.0018374654734000001,1.78,True,0.025035119893100703,RhPtN3,6.205622837025298,6.205622837025298,0.0
4092,perov_4092.cif,0.261932179809,0.0018374654734000001,1.54,True,0.0008709355444693756,BeReN3,5.9647018091366215,5.9647018091366215,0.0
4093,perov_4093.cif,0.19734764264000001,0.0018374654734000001,2.34,True,-0.16821316676769646,BCrON2,5.7619940568641725,5.7619940568641725,0.0
4094,perov_4094.cif,0.222410061688,0.0018374654734000001,1.86,True,1.4156908259598835,BCoO2N,5.973240790887443,5.973240790887443,0.0
4095,perov_4095.cif,0.214399739317,0.0018374654734000001,0.42,False,-4.430379512143643e-06,BaSnO2S,5.769831357249861,4.76983135724986,1.0
4096,perov_4096.cif,0.405126830638,0.0018374654734000001,1.52,True,1.171838701655128,WBO3,6.04308884774273,6.04308884774273,0.0
4097,perov_4097.cif,0.20152887899,0.0018374654734000001,1.48,True,0.00020175267480837536,ScAgO3,5.758413839933707,5.758413839933707,0.0
4098,perov_4098.cif,0.305737073086,0.0018374654734000001,1.4,True,0.0011802490622123685,GaSiN3,5.6685506656282785,5.6685506656282785,0.0
4099,perov_4099.cif,0.145238492137,0.0018374654734000001,0.9,True,0.4109555995855914,CuInO2S,5.470210124374574,5.470210124374574,0.0
4100,perov_4100.cif,0.25550784868099996,0.0018374654734000001,0.9,True,2.9999994595979764,CoGeO3,6.099893367727063,6.099893367727063,0.0
4101,perov_4101.cif,0.156394374912,0.0036749309468000002,1.32,True,1.850316687486117,AuRhO2F,6.8098412861683935,6.8098412861683935,0.0
4102,perov_4102.cif,0.197635817501,0.0018374654734000001,2.04,True,-0.3093699725500852,CsBiON2,5.138424111928671,5.138424111928671,0.0
4103,perov_4103.cif,0.32741008854000003,0.0018374654734000001,1.74,True,2.3719458954483303,IrSbO3,6.43774225207035,6.43774225207035,0.0
4104,perov_4104.cif,0.21015616200399997,0.0018374654734000001,1.66,True,0.0036952200233848404,TeMgON2,6.063082560382727,6.063082560382727,0.0
4105,perov_4105.cif,0.1643602256,0.0018374654734000001,3.9,True,-1.2812720896316825,KCsN3,4.589575755140072,4.589575755140072,0.0
4106,perov_4106.cif,0.202099277464,0.0018374654734000001,1.44,True,3.2937209426277434,WCaO2S,5.089218988075883,5.089218988075883,0.0
4107,perov_4107.cif,0.24264708836399998,0.0036749309468000002,0.84,True,3.4293357767272385,InFeOFN,5.9038262650735795,5.9038262650735795,0.0
4108,perov_4108.cif,0.187872044977,0.0018374654734000001,0.7,True,-0.0021428629833507005,GaZrO2N,5.448477290099278,5.448477290099278,0.0
4109,perov_4109.cif,0.20743256218400002,0.0018374654734000001,1.34,True,0.0006302456695692626,SbAgO3,6.204430548042463,6.204430548042463,0.0
4110,perov_4110.cif,0.179857441853,0.0036749309468000002,1.88,True,0.0,CoCuOFN,6.428435891974437,6.428435891974437,0.0
4111,perov_4111.cif,0.25111674933899997,0.0036749309468000002,0.98,True,3.22834867368732,VMoOFN,6.034335392191843,6.034335392191843,0.0
4112,perov_4112.cif,0.179178801805,0.0018374654734000001,1.76,True,0.9006102542293137,CdAuO2N,6.375889482315102,6.375889482315102,0.0
4113,perov_4113.cif,0.35745224193400005,0.0018374654734000001,1.0,True,1.930511448721681,NbFeN3,5.741665022496733,5.741665022496733,0.0
4114,perov_4114.cif,0.19107884509300002,0.0036749309468000002,0.44,True,-2.9979355591626557e-15,SnYO2F,6.0486710160831105,6.0486710160831105,0.0
4115,perov_4115.cif,0.254235729794,0.0018374654734000001,0.76,True,3.0684981325805163,TlFeO3,6.247361851729005,6.247361851729005,0.0
4116,perov_4116.cif,0.19611067255399997,0.0018374654734000001,1.16,True,2.3215716354963547,ZnCoO2N,6.017146230347339,6.017146230347339,0.0
4117,perov_4117.cif,0.22733282765,0.0018374654734000001,1.52,True,0.008252043546185917,HgPtO3,6.588432871766948,6.588432871766948,0.0
4118,perov_4118.cif,0.251859057783,0.0018374654734000001,1.18,True,-0.016118797538181837,ZnCrON2,5.804346757866593,5.804346757866593,0.0
4119,perov_4119.cif,0.17965232511799997,0.0018374654734000001,1.86,True,0.9139028936740842,AlPbON2,5.486099579591548,5.486099579591548,0.0
4120,perov_4120.cif,0.12319565747000001,0.0018374654734000001,1.44,True,3.6861426118739837,FeNaO2S,5.2741229052655045,5.2741229052655045,0.0
4121,perov_4121.cif,0.024108878886500002,0.0018374654734000001,3.28,True,7.000000000498473,AgNaN3,5.462182575976343,5.462182575976343,0.0
4122,perov_4122.cif,0.17714655862,0.0018374654734000001,2.68,True,1.9677151040213408,BSbON2,6.075927257499346,6.075927257499346,0.0
4123,perov_4123.cif,0.0956788633392,0.0018374654734000001,3.96,True,-0.6815278380958599,ZnRbON2,5.290392978118997,5.290392978118997,0.0
4124,perov_4124.cif,0.09721611119310002,0.0018374654734000001,1.4,True,-0.8542491887807984,LiPdO3,5.642379423124633,5.642379423124633,0.0
4125,perov_4125.cif,0.30641264750999997,0.0018374654734000001,0.3,True,0.5230173574987305,CdWO3,6.082025914412081,6.082025914412081,0.0
4126,perov_4126.cif,0.25845145357099997,0.0018374654734000001,2.48,True,0.0,TaYN3,5.498390169987969,5.498390169987969,0.0
4127,perov_4127.cif,0.23862299095800002,0.0036749309468000002,1.1,True,2.177428114142104,MnCoOFN,6.193816039957674,6.193816039957674,0.0
4128,perov_4128.cif,0.18453760105300002,0.0036749309468000002,1.46,True,2.816905888912858,VPtO2F,6.525888895529644,6.525888895529644,0.0
4129,perov_4129.cif,0.287302087528,0.0018374654734000001,2.04,True,0.04375182708432313,HfLiON2,5.2751757639745485,5.2751757639745485,0.0
4130,perov_4130.cif,0.168979376936,0.0018374654734000001,2.0,True,-2.922310341076099,CrTlO2N,6.096041705382657,6.096041705382657,0.0
4131,perov_4131.cif,0.125715812975,0.0018374654734000001,1.78,True,0.5439697381416071,LiTiN3,5.250464962082091,5.250464962082091,0.0
4132,perov_4132.cif,0.121417138618,0.0018374654734000001,1.7,True,2.9826016169455536,CaLiO2S,4.7170871785025374,4.7170871785025374,0.0
4133,perov_4133.cif,0.17977762607900002,0.0036749309468000002,1.1,True,3.564250022497749,AgCoOFN,6.416915323476968,6.416915323476968,0.0
4134,perov_4134.cif,0.219207324243,0.0018374654734000001,1.74,True,-0.0006911439390526581,ScAgO2N,5.718087016158202,5.718087016158202,0.0
4135,perov_4135.cif,0.282297630499,0.0036749309468000002,1.04,True,2.3664016515772093,CoReOFN,6.287508554618384,6.287508554618384,0.0
4136,perov_4136.cif,0.166287536899,0.0036749309468000002,2.22,True,4.708168232541237,ReAgO2F,6.372555183122437,6.372555183122437,0.0
4137,perov_4137.cif,0.250620418678,0.0036749309468000002,1.16,True,8.16719760420812e-16,AuOsOFN,6.9382981423301695,6.9382981423301695,0.0
4138,perov_4138.cif,0.0553951037527,0.0018374654734000001,1.8,True,-1.8364897765585711e-10,KHgO2S,5.367514683979838,5.367514683979838,0.0
4139,perov_4139.cif,0.289221194533,0.0036749309468000002,1.28,True,2.9742166184674863,NbWO2F,6.357855746057293,6.357855746057293,0.0
4140,perov_4140.cif,0.178684789426,0.0018374654734000001,2.02,True,0.0,KSbN3,5.380616851161375,5.380616851161375,0.0
4141,perov_4141.cif,0.0423187142088,0.0018374654734000001,4.96,True,3.999895314557476,BRbON2,5.251790454642273,5.251790454642273,0.0
4142,perov_4142.cif,0.232532621252,0.0018374654734000001,1.5,True,0.01124182173586874,ZnSbON2,6.1205874789278605,6.1205874789278605,0.0
4143,perov_4143.cif,0.172963648602,0.0018374654734000001,3.46,True,0.0,IrCsO3,5.491285957587833,5.491285957587833,0.0
4144,perov_4144.cif,0.262463753126,0.0018374654734000001,0.98,True,0.009293903431197846,AsMoO2N,6.110728212351093,6.110728212351093,0.0
4145,perov_4145.cif,0.24978844968299999,0.0036749309468000002,1.36,True,0.9984070967410136,SrBOFN,5.46831445750956,5.46831445750956,0.0