,id,fermi level,fermi width,e_form,gap is direct,mu_b,formula,vbm,cbm,gap gllbsc
2375,perov_2375.cif,0.260385609689,0.0018374654734000001,1.62,True,-0.9760741012324959,BaBiN3,5.312708282148279,5.312708282148279,0.0
2376,perov_2376.cif,0.20043556898200002,0.0018374654734000001,1.16,True,0.9349824347257716,AsSnON2,6.1875913636737065,6.1875913636737065,0.0
2377,perov_2377.cif,-0.0027528285864599996,0.0018374654734000001,4.5,True,6.9999999926239775,BNaN3,5.424766843636163,5.424766843636163,0.0
2378,perov_2378.cif,0.0781578109645,0.0036749309468000002,0.6,True,-1.92469557975417e-10,LiAlO2F,5.639264202393044,5.639264202393044,0.0
2379,perov_2379.cif,0.370810479313,0.0018374654734000001,0.56,True,0.7750992422753029,BaOsO2N,5.578450750902189,5.578450750902189,0.0
2380,perov_2380.cif,0.20266376893399998,0.0018374654734000001,2.3,True,-0.00020541718407323265,YRbO3,5.019706140897164,5.019706140897164,0.0
2381,perov_2381.cif,0.201939598625,0.0018374654734000001,1.12,True,0.0012526029321584529,PdCuO2S,5.880356719170238,5.880356719170238,0.0
2382,perov_2382.cif,0.08787551403930001,0.0018374654734000001,2.54,True,1.999999848300067,SiCaO3,5.371343324676354,5.371343324676354,0.0
2383,perov_2383.cif,0.20344938273,0.0036749309468000002,1.24,True,0.85768830279952,GaNiOFN,6.0377698482536175,6.0377698482536175,0.0
2384,perov_2384.cif,0.191315928444,0.0018374654734000001,1.66,True,0.8409003284106067,SiRuO2S,5.965405368503723,5.965405368503723,0.0
2385,perov_2385.cif,0.214565021341,0.0018374654734000001,1.78,True,-0.010601264366924662,PdPdO2N,6.0585525202471135,6.0585525202471135,0.0
2386,perov_2386.cif,0.30975376889,0.0018374654734000001,1.12,True,-2.133752777517464,MoAlO2N,5.527627904180808,5.527627904180808,0.0
2387,perov_2387.cif,0.159567121215,0.0018374654734000001,1.02,True,2.6080091444090847,NiHfON2,5.691335276949352,5.691335276949352,0.0
2388,perov_2388.cif,0.225907134109,0.0018374654734000001,2.92,True,-3.616838600901104,ReHgO2N,6.126153122912129,6.126153122912129,0.0
2389,perov_2389.cif,0.19971570373199998,0.0036749309468000002,1.44,True,-0.007771606112384573,SbCdOFN,6.570298734846907,6.570298734846907,0.0
2390,perov_2390.cif,0.149395429291,0.0036749309468000002,0.88,True,6.7532025725572296e-15,CaCdO2F,5.6490239732275525,5.6490239732275525,0.0
2391,perov_2391.cif,0.122164029728,0.0018374654734000001,0.1,False,1.976734768820558e-06,NaVO3,5.849417053644936,4.849417053644936,1.0
2392,perov_2392.cif,0.276892059198,0.0018374654734000001,0.74,True,-0.9105554669399328,BaZrON2,5.221797128916398,5.221797128916398,0.0
2393,perov_2393.cif,0.21492350911999997,0.0018374654734000001,1.04,True,0.1125059229178724,IrYO2S,5.698262546828658,5.698262546828658,0.0
2394,perov_2394.cif,0.181418840334,0.0036749309468000002,1.8,True,3.9083260033059264,RuZnOFN,6.47844130311869,6.47844130311869,0.0
2395,perov_2395.cif,0.22956536916700002,0.0018374654734000001,1.1,True,0.19071415326297012,SnPdO3,6.059582170020341,6.059582170020341,0.0
2396,perov_2396.cif,0.311437691313,0.0018374654734000001,0.94,True,2.139419661842957,TaMnO2S,5.573672244023548,5.573672244023548,0.0
2397,perov_2397.cif,0.242323964824,0.0018374654734000001,1.1,True,0.6590978376023315,SnTiN3,5.6386891916833095,5.6386891916833095,0.0
2398,perov_2398.cif,0.26263106058,0.0036749309468000002,0.84,True,0.7334623514202612,NiWO2F,6.480211894640664,6.480211894640664,0.0
2399,perov_2399.cif,0.252803745005,0.0018374654734000001,1.3,True,1.6862776576422611,TiCoO2S,5.542855764069278,5.542855764069278,0.0
2400,perov_2400.cif,0.21041911080200001,0.0018374654734000001,1.08,True,2.997255006495044,MoGaO2S,5.354500759291726,5.354500759291726,0.0
2401,perov_2401.cif,0.0811658602543,0.0036749309468000002,2.46,True,0.0,CsCsOFN,4.867810568400771,4.867810568400771,0.0
2402,perov_2402.cif,0.28504926033000005,0.0018374654734000001,1.72,True,0.2348372539260559,SiTeON2,6.359289833598084,6.359289833598084,0.0
2403,perov_2403.cif,0.13455629403,0.0018374654734000001,1.64,True,2.9999991780879007,AuMgO3,6.210383251059523,6.210383251059523,0.0
2404,perov_2404.cif,0.26381991107700004,0.0018374654734000001,0.32,True,0.10998854949862034,PbNbO2S,5.596003609542893,5.596003609542893,0.0
2405,perov_2405.cif,0.340374941763,0.0018374654734000001,2.14,True,0.33257888999985497,AsBN3,6.141398504136377,6.141398504136377,0.0
2406,perov_2406.cif,0.199263183895,0.0018374654734000001,1.46,True,1.9542396431080211,RuRhO2S,5.845373431712848,5.845373431712848,0.0
2407,perov_2407.cif,0.270816664635,0.0018374654734000001,1.54,True,0.6770862282447075,HfTeO2S,5.806860755897522,5.806860755897522,0.0
2408,perov_2408.cif,0.31271239056999994,0.0018374654734000001,1.26,True,-0.0008659532878315724,CaTeON2,5.449689574020836,5.449689574020836,0.0
2409,perov_2409.cif,0.25251604886100004,0.0018374654734000001,1.02,True,-1.6027527381349675,CoCrO2N,5.805333205422013,5.805333205422013,0.0
2410,perov_2410.cif,0.227216224523,0.0018374654734000001,1.22,True,0.17590149651671882,CoCoON2,5.9341721608429685,5.9341721608429685,0.0
2411,perov_2411.cif,0.273286042755,0.0018374654734000001,0.9,True,-3.7943428130684733,MnBO3,5.843553602326597,5.843553602326597,0.0
2412,perov_2412.cif,0.277067303043,0.0018374654734000001,0.78,True,-0.14701508818515596,AgReON2,5.889497315073866,5.889497315073866,0.0
2413,perov_2413.cif,0.139148784559,0.0018374654734000001,0.9,True,0.9939205556481062,MgScO3,5.5671449959614066,5.5671449959614066,0.0
2414,perov_2414.cif,0.321856223562,0.0018374654734000001,0.76,True,4.881375626781949,MnReON2,5.684734969765273,5.684734969765273,0.0
2415,perov_2415.cif,0.283781000781,0.0018374654734000001,1.4,True,-0.2335266395154107,ZrBiO2N,5.72813854714181,5.72813854714181,0.0
2416,perov_2416.cif,0.321496526746,0.0018374654734000001,0.72,True,0.00425934277764739,SbMoO2N,6.003246022274992,6.003246022274992,0.0
2417,perov_2417.cif,0.21956751894999998,0.0018374654734000001,0.9,True,0.5958163778165789,AsHfO3,5.99077536780815,5.99077536780815,0.0
2418,perov_2418.cif,0.109814056984,0.0036749309468000002,2.0,True,-1.2375384666016326e-05,SiCdO2F,6.591894865709369,6.591894865709369,0.0
2419,perov_2419.cif,0.323020150519,0.0036749309468000002,0.38,True,3.182771288576141,BiCrO2F,6.181374962772088,6.181374962772088,0.0
2420,perov_2420.cif,0.133173739263,0.0018374654734000001,2.62,True,-0.0005636256827989468,RbBeON2,5.393307062015097,5.393307062015097,0.0
2421,perov_2421.cif,0.24304104488400002,0.0036749309468000002,0.88,True,0.19093898497827053,HgGeOFN,6.718026153793521,6.718026153793521,0.0
2422,perov_2422.cif,0.230307057113,0.0018374654734000001,3.0,True,1.9815644655806885e-05,PdLiN3,5.524664988031773,5.524664988031773,0.0
2423,perov_2423.cif,0.296874207546,0.0018374654734000001,1.44,True,-1.873372694454017,TiSbO3,5.8991461039036075,5.8991461039036075,0.0
2424,perov_2424.cif,0.339560720822,0.0018374654734000001,1.3,True,0.0005418175998848085,LaLaN3,5.115916219869646,5.115916219869646,0.0
2425,perov_2425.cif,0.06479770297519999,0.0036749309468000002,2.24,True,0.0,PdCaOFN,5.614519075154943,5.614519075154943,0.0
2426,perov_2426.cif,0.253414424644,0.0018374654734000001,2.8,True,-3.396915066232701,ReAuO2N,6.250127974142632,6.250127974142632,0.0
2427,perov_2427.cif,0.332913181361,0.0018374654734000001,0.28,True,2.9999952793527243,LaCrO2S,5.243074684020256,5.243074684020256,0.0
2428,perov_2428.cif,0.284095327476,0.0018374654734000001,1.92,True,1.7034884823929697,SnCuN3,5.941142106729796,5.941142106729796,0.0
2429,perov_2429.cif,0.26863739890599997,0.0018374654734000001,1.36,True,-0.001078020909559785,TeNbN3,6.098838225811945,6.098838225811945,0.0
2430,perov_2430.cif,0.29641906182100003,0.0018374654734000001,0.46,True,2.6961920730924693,BaCoO3,5.4751703453885785,5.4751703453885785,0.0
2431,perov_2431.cif,0.175938771042,0.0018374654734000001,1.8,True,1.406656676475837,BeNiON2,6.1193107901174155,6.1193107901174155,0.0
2432,perov_2432.cif,0.269584036827,0.0018374654734000001,1.54,True,-0.002011187474624712,AlIrO3,5.927700377500504,5.927700377500504,0.0
2433,perov_2433.cif,0.259315430744,0.0018374654734000001,0.54,True,0.02341368174974079,InWO2S,5.450532599383879,5.450532599383879,0.0
2434,perov_2434.cif,0.20800622857099998,0.0018374654734000001,1.78,True,-4.858431794909095,FeZnO2N,5.948426251297519,5.948426251297519,0.0
2435,perov_2435.cif,0.216508339622,0.0036749309468000002,2.02,True,0.577364894704683,ScAuO2F,6.474296614708733,6.474296614708733,0.0
2436,perov_2436.cif,0.24872433005300001,0.0018374654734000001,2.82,True,4.481151503564133,CsAuN3,5.4606536559429015,5.4606536559429015,0.0
2437,perov_2437.cif,0.183588637251,0.0036749309468000002,1.62,True,2.3204871293487312,PtRhO2F,6.761964190518298,6.761964190518298,0.0
2438,perov_2438.cif,0.378851472041,0.0036749309468000002,1.32,True,3.922517346131143,MoSiOFN,6.381023371006602,6.381023371006602,0.0
2439,perov_2439.cif,0.269879318825,0.0036749309468000002,0.84,True,3.5289378829866385,NbNbO2F,6.237809865616317,6.237809865616317,0.0
2440,perov_2440.cif,0.18468660195300002,0.0018374654734000001,1.26,True,0.7892670118139389,MgBO2S,5.63344137831416,5.63344137831416,0.0
2441,perov_2441.cif,0.278358370793,0.0018374654734000001,0.88,True,0.3217276721950491,YRuO2S,5.506513480846338,5.506513480846338,0.0
2442,perov_2442.cif,0.206290322266,0.0036749309468000002,1.38,True,2.0955520582130904,NbBiOFN,6.227824791078987,6.227824791078987,0.0
2443,perov_2443.cif,0.306037748456,0.0018374654734000001,0.4,True,1.3391866708900575e-06,YVON2,5.394999345706292,5.394999345706292,0.0
2444,perov_2444.cif,0.175785628994,0.0018374654734000001,2.58,True,1.0169743072172075,YKO2N,5.018178234911214,5.018178234911214,0.0
2445,perov_2445.cif,0.20542201286400003,0.0036749309468000002,1.0,True,3.9154769463910353,HgFeOFN,6.552323491676482,6.552323491676482,0.0
2446,perov_2446.cif,0.115800530628,0.0036749309468000002,1.72,True,0.0,PdBaOFN,5.8405666505507625,5.8405666505507625,0.0
2447,perov_2447.cif,0.0502473009248,0.0018374654734000001,1.72,True,1.5152474020396765e-05,RbMgO2S,4.990286644720337,4.990286644720337,0.0
2448,perov_2448.cif,0.260489725834,0.0036749309468000002,0.78,True,4.644696022605326,MnTaOFN,6.135096279966997,6.135096279966997,0.0
2449,perov_2449.cif,0.23267371732099998,0.0018374654734000001,1.78,True,2.416855703791243,CrAuN3,6.0710582123052586,6.0710582123052586,0.0
2450,perov_2450.cif,0.212947887924,0.0036749309468000002,0.22,False,-9.246656459916135e-17,AgTaOFN,6.756080496410062,5.9560804964100615,0.8
2451,perov_2451.cif,0.321306989134,0.0018374654734000001,2.0,True,0.012160134864725338,OsPtN3,6.367272802363063,6.367272802363063,0.0
2452,perov_2452.cif,0.198203544949,0.0036749309468000002,0.98,True,0.8755212599866428,GeBeO2F,6.680345414521611,6.680345414521611,0.0
2453,perov_2453.cif,0.242845563332,0.0018374654734000001,3.1,True,1.1251235569523137,IrAgON2,6.236739506655562,6.236739506655562,0.0
2454,perov_2454.cif,0.244448691078,0.0018374654734000001,0.62,True,1.9988716551561068,BaGaO2N,5.1248578902047965,5.1248578902047965,0.0
2455,perov_2455.cif,0.11540259063200001,0.0018374654734000001,2.5,True,6.997599403534597,CoYN3,5.551015937601599,5.551015937601599,0.0
2456,perov_2456.cif,0.15420914785999998,0.0036749309468000002,1.26,True,2.1427194284658355e-11,LiTeOFN,6.2342439331387896,6.2342439331387896,0.0
2457,perov_2457.cif,0.207206339597,0.0018374654734000001,1.76,True,0.31184476046710863,SiRhO3,6.1417490507273875,6.1417490507273875,0.0
2458,perov_2458.cif,0.20976718445,0.0018374654734000001,0.26,False,-5.6927945788689003e-05,ZnTaO2N,6.940101368150043,4.9801013681500415,2.0
2459,perov_2459.cif,0.298258948385,0.0018374654734000001,1.4,True,0.07004421852566267,YCuN3,5.596730385922512,5.596730385922512,0.0
2460,perov_2460.cif,0.269747533193,0.0018374654734000001,0.38,True,0.009457430115972444,SrNbO2S,4.8988491315162435,4.8988491315162435,0.0
2461,perov_2461.cif,0.20053234066300002,0.0018374654734000001,1.7,True,0.02996810574678221,RhPdON2,5.975007474362156,5.975007474362156,0.0
2462,perov_2462.cif,0.188320072092,0.0036749309468000002,1.1,True,6.632720467280812,RhFeO2F,6.347563208186722,6.347563208186722,0.0
2463,perov_2463.cif,0.24244585785,0.0036749309468000002,1.5,True,3.99418938365318e-13,NiBOFN,6.402329432489142,6.402329432489142,0.0
2464,perov_2464.cif,0.18856201643800002,0.0018374654734000001,3.0,True,-2.0579616454203844,TiCsO3,5.0318724940730775,5.0318724940730775,0.0
2465,perov_2465.cif,0.33224437661899997,0.0018374654734000001,1.08,True,-0.00013475547147603068,NbVN3,5.605226220793009,5.605226220793009,0.0
2466,perov_2466.cif,0.0340372042148,0.0018374654734000001,2.14,True,3.9739259943098344,NaLiO2S,4.967734060400678,4.967734060400678,0.0
2467,perov_2467.cif,-0.023825548818599995,0.0036749309468000002,2.74,True,0.0,AuKO2F,6.070247128791169,6.070247128791169,0.0
2468,perov_2468.cif,0.175365831195,0.0018374654734000001,0.9,True,2.9998630293525648,CoHfO3,5.745416967613701,5.745416967613701,0.0
2469,perov_2469.cif,0.192610487875,0.0018374654734000001,0.94,True,0.022469716155292474,ZnMoN3,5.818426735212682,5.818426735212682,0.0
2470,perov_2470.cif,0.234938970231,0.0018374654734000001,1.0,True,-0.7977643949469534,NbInO2N,5.517079088227801,5.517079088227801,0.0
2471,perov_2471.cif,0.303554622278,0.0018374654734000001,0.68,True,-0.0005482841588033744,LaSbO2S,5.528735377259417,5.528735377259417,0.0
2472,perov_2472.cif,0.301926885763,0.0018374654734000001,1.28,True,0.004851100495297799,YPtO2N,6.028625918319799,5.8286259183198,0.2
2473,perov_2473.cif,0.235558219171,0.0018374654734000001,1.34,True,2.1910599861127125,CaZrN3,4.984544291712218,4.984544291712218,0.0
2474,perov_2474.cif,0.278485136345,0.0018374654734000001,2.92,True,2.7047853679001146,ReBiN3,5.758612895150244,5.758612895150244,0.0
2475,perov_2475.cif,0.287495835614,0.0018374654734000001,0.8,True,2.565614401782607,SnFeO2N,5.907772603254437,5.907772603254437,0.0
2476,perov_2476.cif,0.23725523019499997,0.0036749309468000002,0.82,True,1.2690183618605568,NiGeO2F,6.538080116044027,6.538080116044027,0.0
2477,perov_2477.cif,0.25658265363,0.0018374654734000001,1.02,True,0.6089523662074222,HgWN3,6.153826992513921,6.153826992513921,0.0
2478,perov_2478.cif,0.264845010457,0.0036749309468000002,1.28,True,-3.491484817289819e-16,PtOsOFN,6.889517921198741,6.889517921198741,0.0
2479,perov_2479.cif,0.184454403387,0.0018374654734000001,1.26,True,0.0,RuMgO2N,5.867777384653714,5.867777384653714,0.0
2480,perov_2480.cif,0.10631839303,0.0018374654734000001,2.36,True,-2.9862678953365736,CrSrO2N,4.981262857850316,4.981262857850316,0.0
2481,perov_2481.cif,0.24617468139499998,0.0036749309468000002,1.02,True,2.3059655678376285,RhGeO2F,6.508087657702812,6.508087657702812,0.0
2482,perov_2482.cif,0.131712067363,0.0018374654734000001,1.52,True,-0.9313085200912988,SnKO2N,5.326987000391625,5.326987000391625,0.0
2483,perov_2483.cif,0.25664431305999996,0.0018374654734000001,0.58,True,-0.0008493105634157514,SnVON2,5.726996937207677,5.726996937207677,0.0
2484,perov_2484.cif,0.13155812702199998,0.0036749309468000002,1.32,True,-8.098096081576774e-15,CdAgO2F,6.500780101725278,6.500780101725278,0.0
2485,perov_2485.cif,-0.0435970151942,0.0036749309468000002,2.82,True,0.0,GaKOFN,5.357338553238359,5.357338553238359,0.0
2486,perov_2486.cif,0.16817847543900002,0.0018374654734000001,1.32,True,-0.03193624449655448,BTaO2N,5.9166121691549485,5.9166121691549485,0.0
2487,perov_2487.cif,0.21573518730500002,0.0036749309468000002,1.08,True,1.4381365609490189,GeRuO2F,6.567532119926826,6.567532119926826,0.0
2488,perov_2488.cif,0.15987081455,0.0036749309468000002,0.78,True,2.636675820954089e-15,MgAsO2F,6.514327131549888,6.514327131549888,0.0
2489,perov_2489.cif,0.082070021364,0.0018374654734000001,3.24,True,0.0,NaBaN3,4.9376076508231375,4.9376076508231375,0.0
2490,perov_2490.cif,0.168777746365,0.0036749309468000002,2.02,True,4.257513987585025,WPbO2F,6.3224964176663665,6.3224964176663665,0.0
2491,perov_2491.cif,0.183763989159,0.0036749309468000002,0.92,True,-2.2048630944495686,NiFeO2F,6.3768158911717805,6.3768158911717805,0.0
2492,perov_2492.cif,0.287214792318,0.0018374654734000001,1.3,True,0.00019930282793012558,SbAlON2,5.733530324003093,5.733530324003093,0.0
2493,perov_2493.cif,0.23020126041900002,0.0018374654734000001,0.96,True,0.7666776599844827,YBeO2S,5.601101206671086,5.601101206671086,0.0
2494,perov_2494.cif,0.208736894926,0.0018374654734000001,1.04,True,-0.0005486566253304215,TlAlO2S,5.737088413518722,5.737088413518722,0.0
2495,perov_2495.cif,0.18213877663199998,0.0018374654734000001,1.34,True,2.9987310191994223,PdHfO2N,5.744440701080495,5.744440701080495,0.0
2496,perov_2496.cif,0.287646367527,0.0018374654734000001,0.62,True,0.012390874296944077,SnGeO2N,6.0571751241746785,6.0571751241746785,0.0
2497,perov_2497.cif,0.225210164518,0.0018374654734000001,1.28,True,3.033580838575244,OsNbO2S,5.858006341819936,5.858006341819936,0.0
2498,perov_2498.cif,0.416856977158,0.0018374654734000001,0.6,True,0.00010202333278286346,LaAsO2N,5.806058872095367,5.806058872095367,0.0
2499,perov_2499.cif,0.210851068935,0.0018374654734000001,2.32,True,4.180932012937317,NiPdON2,6.002543237890348,6.002543237890348,0.0
2500,perov_2500.cif,0.257969204159,0.0018374654734000001,2.08,True,1.61200665596008,CuTeN3,6.238651388072568,6.238651388072568,0.0
2501,perov_2501.cif,0.198529664789,0.0018374654734000001,2.4,True,-1.060844002500319,LaRbO2S,4.7788195035903405,4.7788195035903405,0.0
2502,perov_2502.cif,0.154644414236,0.0018374654734000001,2.06,True,-0.4419340199253977,GaLaON2,5.2119968413018425,5.2119968413018425,0.0
2503,perov_2503.cif,0.292889443483,0.0036749309468000002,1.2,True,0.7076437281413775,ZrInOFN,5.776285342800951,5.776285342800951,0.0
2504,perov_2504.cif,0.271712683473,0.0018374654734000001,1.02,True,0.030548798385680694,YPdO3,5.708304404725715,5.708304404725715,0.0
2505,perov_2505.cif,0.17763345160900001,0.0036749309468000002,1.3,True,1.9980419114489931,CsScOFN,5.296562966786015,5.296562966786015,0.0
2506,perov_2506.cif,0.392948266805,0.0018374654734000001,0.94,True,1.092794178364052,ZrCoN3,5.699471867919883,5.699471867919883,0.0
2507,perov_2507.cif,0.12805902829000002,0.0036749309468000002,2.08,True,-4.630005807569983e-10,BiRbO2F,5.634036707722423,5.634036707722423,0.0
2508,perov_2508.cif,0.192293000572,0.0036749309468000002,2.38,True,2.7707420449013576,WAgOFN,6.44648761500729,6.44648761500729,0.0
2509,perov_2509.cif,0.300728452237,0.0018374654734000001,0.7,True,0.9961846529579148,YTiN3,5.311810855377355,5.311810855377355,0.0
2510,perov_2510.cif,0.227710674133,0.0018374654734000001,1.94,True,0.8354877288815068,TiPbN3,5.526808104845936,5.526808104845936,0.0
2511,perov_2511.cif,0.304462062359,0.0018374654734000001,0.98,True,0.02166435771567876,TlOsO2N,6.438743335496661,6.438743335496661,0.0
2512,perov_2512.cif,0.270971484992,0.0018374654734000001,0.42,False,-5.1627193854058745e-06,CdGeO3,7.16133833936338,5.111338339363377,2.1
2513,perov_2513.cif,0.184852222033,0.0018374654734000001,2.1,True,0.00011221845414513384,AgCuON2,6.021503684173648,6.021503684173648,0.0
2514,perov_2514.cif,0.146983469326,0.0018374654734000001,2.18,True,0.5811779172086471,AlNaN3,5.119064774885978,5.119064774885978,0.0
2515,perov_2515.cif,0.175436718936,0.0018374654734000001,1.98,True,-2.051106552397349,CoRbO2N,5.291292079333685,5.291292079333685,0.0
2516,perov_2516.cif,0.261287526409,0.0018374654734000001,1.24,True,0.8508201372829554,NiFeN3,5.852162656709997,5.852162656709997,0.0
2517,perov_2517.cif,0.2137923689,0.0018374654734000001,1.54,True,2.2110305323663995,MnCuON2,5.8121518242958965,5.8121518242958965,0.0
2518,perov_2518.cif,0.24554658602499999,0.0018374654734000001,2.1,True,0.03832746843350954,BIrON2,6.194018090296691,6.194018090296691,0.0
2519,perov_2519.cif,0.328127050783,0.0018374654734000001,1.62,True,1.176574249199051,MoPtN3,6.0856168671234325,6.0856168671234325,0.0
2520,perov_2520.cif,0.163196708379,0.0018374654734000001,0.98,True,1.795826779761999,CoAsO2S,6.0398330251776295,6.0398330251776295,0.0
2521,perov_2521.cif,0.296638941,0.0018374654734000001,1.24,True,0.051998577381343836,CaMnN3,5.006264261938403,5.006264261938403,0.0