,id,fermi level,fermi width,e_form,gap is direct,mu_b,formula,vbm,cbm,gap gllbsc
4146,perov_4146.cif,0.249069299093,0.0018374654734000001,1.48,True,0.0,CoIrO2N,6.240606730884669,6.240606730884669,0.0
4147,perov_4147.cif,0.29527798314,0.0018374654734000001,1.56,True,0.5149754188365847,CaAsN3,5.373538398161496,5.373538398161496,0.0
4148,perov_4148.cif,0.215076307487,0.0018374654734000001,1.58,True,-4.812879089621676e-05,SiLiO2S,5.504409770686209,5.504409770686209,0.0
4149,perov_4149.cif,0.136884805453,0.0018374654734000001,1.82,True,0.0,CsAuO2S,5.367846065548674,5.367846065548674,0.0
4150,perov_4150.cif,0.21588157865200003,0.0018374654734000001,0.46,True,-0.0007217863198398299,CuWO2N,6.053004694675198,6.053004694675198,0.0
4151,perov_4151.cif,0.287474290902,0.0036749309468000002,0.78,True,0.7282448980494821,YYO2F,5.698025777201082,5.698025777201082,0.0
4152,perov_4152.cif,0.302638923027,0.0036749309468000002,1.24,True,2.2085524352473745e-15,BiIrO2F,6.6448434282409545,6.6448434282409545,0.0
4153,perov_4153.cif,0.19793816364300001,0.0018374654734000001,1.12,True,2.899502401775262,MoLaO2S,5.292859642635163,5.292859642635163,0.0
4154,perov_4154.cif,0.367780484501,0.0018374654734000001,0.86,False,9.716237560652982e-05,LaIrO2S,5.7361910687690285,5.536191068769028,0.2
4155,perov_4155.cif,0.240458756283,0.0018374654734000001,0.94,True,-0.00014623323994335282,NbScON2,5.560758715651286,5.560758715651286,0.0
4156,perov_4156.cif,0.12161051158500001,0.0018374654734000001,2.56,True,3.4851729673012137,LiCuN3,5.532093968247815,5.532093968247815,0.0
4157,perov_4157.cif,0.305001233475,0.0018374654734000001,0.96,True,0.5182116725275511,AsGeO3,6.360389705329496,6.360389705329496,0.0
4158,perov_4158.cif,0.157261299684,0.0036749309468000002,2.2,True,0.45947016548166,BeRhO2F,6.590844169133535,6.590844169133535,0.0
4159,perov_4159.cif,0.13759676190300002,0.0018374654734000001,-0.32,False,2.9816633303158088e-05,NaNbO3,7.303336568062192,3.6233365680621934,3.7
4160,perov_4160.cif,-0.00510132466088,0.0018374654734000001,1.86,True,0.0,CsKO3,4.687366176550705,4.687366176550705,0.0
4161,perov_4161.cif,0.18415708074,0.0018374654734000001,0.56,True,2.5000905263555726,CoTaON2,5.8779139247603815,5.8779139247603815,0.0
4162,perov_4162.cif,0.236906198523,0.0018374654734000001,0.78,True,-0.1646184353688675,BaLaO2N,5.0658604267138765,5.0658604267138765,0.0
4163,perov_4163.cif,0.106836688333,0.0036749309468000002,1.2,True,-1.2705302076797351,KPdO2F,5.762928239944888,5.762928239944888,0.0
4164,perov_4164.cif,0.216050248046,0.0036749309468000002,1.36,True,4.011367539133221,CrRuOFN,6.250389965045173,6.250389965045173,0.0
4165,perov_4165.cif,0.274963640498,0.0018374654734000001,1.6,True,0.6344354659262805,PtNiON2,6.278188252001412,6.278188252001412,0.0
4166,perov_4166.cif,0.212869285271,0.0018374654734000001,1.78,True,0.7700417104580699,KFeON2,5.229269679718495,5.229269679718495,0.0
4167,perov_4167.cif,0.193883519558,0.0036749309468000002,2.3,True,4.7198572679275355,RePbOFN,6.1627537992707175,6.1627537992707175,0.0
4168,perov_4168.cif,0.247429063794,0.0018374654734000001,1.4,True,1.3591456864472455,AgIrO3,6.325018951984805,6.325018951984805,0.0
4169,perov_4169.cif,-0.0011150984236,0.0036749309468000002,1.96,True,3.9999863208679507,RbNaOFN,5.199578829222418,5.199578829222418,0.0
4170,perov_4170.cif,0.159322444358,0.0018374654734000001,1.32,True,-2.133659464937902e-05,PdAgO2S,5.869818377727442,5.869818377727442,0.0
4171,perov_4171.cif,0.24595877925299997,0.0018374654734000001,1.14,True,0.3965790065095671,TeRuO2S,6.138086990420545,6.138086990420545,0.0
4172,perov_4172.cif,0.287793429015,0.0018374654734000001,1.94,True,0.0013432410803453365,IrPbN3,6.031409534357401,6.031409534357401,0.0
4173,perov_4173.cif,0.251842016179,0.0018374654734000001,0.64,True,-0.966623097696006,TiTaO2S,5.490307358041497,5.490307358041497,0.0
4174,perov_4174.cif,0.181440570826,0.0018374654734000001,0.82,True,-0.24840224284208476,ZnAlO3,5.715444269959531,5.715444269959531,0.0
4175,perov_4175.cif,0.287855453311,0.0018374654734000001,1.82,True,0.6768778251108074,PtPtN3,6.53525780708894,6.53525780708894,0.0
4176,perov_4176.cif,0.281338098584,0.0018374654734000001,1.48,True,2.5029367941046203,SrFeN3,4.998409719592184,4.998409719592184,0.0
4177,perov_4177.cif,0.105088728857,0.0018374654734000001,0.78,True,0.9288798789263204,KTiO2S,4.940864679986774,4.940864679986774,0.0
4178,perov_4178.cif,0.09332421990430001,0.0018374654734000001,1.86,True,0.2969683922809168,CaRbO3,4.660201478972202,4.660201478972202,0.0
4179,perov_4179.cif,0.18918474524999998,0.0018374654734000001,1.7,True,-5.274484174214746e-05,KGeON2,5.36151344148606,5.36151344148606,0.0
4180,perov_4180.cif,0.208642942617,0.0018374654734000001,0.62,True,4.034597523469607,FeSnO3,5.949437185133654,5.949437185133654,0.0
4181,perov_4181.cif,-0.00250776117424,0.0036749309468000002,2.26,True,0.0,MgKO2F,5.569003144663419,5.569003144663419,0.0
4182,perov_4182.cif,0.314968878473,0.0018374654734000001,1.88,True,-0.0018819411093768527,RhAsN3,6.144258961131309,6.144258961131309,0.0
4183,perov_4183.cif,0.278671519924,0.0018374654734000001,1.2,True,-0.16988798949870634,HfAsO3,5.99077536780815,5.99077536780815,0.0
4184,perov_4184.cif,0.0699089776759,0.0036749309468000002,1.88,True,0.0,HgCaOFN,5.796617719533073,5.796617719533073,0.0
4185,perov_4185.cif,0.21553109633099998,0.0018374654734000001,3.04,True,-4.238434000777087,OsHgO2N,6.3741274820073714,6.3741274820073714,0.0
4186,perov_4186.cif,0.15035639905099998,0.0036749309468000002,1.52,True,-0.6616872005435537,SiZnO2F,6.597836195651526,6.597836195651526,0.0
4187,perov_4187.cif,0.259517984079,0.0036749309468000002,0.52,False,9.674977954963586e-16,SnHfOFN,6.486961995836888,5.686961995836886,0.8
4188,perov_4188.cif,0.24633794855799998,0.0036749309468000002,1.04,True,1.2195049974535249e-08,PdGeOFN,6.506981797464782,6.506981797464782,0.0
4189,perov_4189.cif,0.23543471490899998,0.0018374654734000001,2.06,True,2.739540867068552,CsAsON2,5.406506836276896,5.406506836276896,0.0
4190,perov_4190.cif,0.283155337861,0.0018374654734000001,1.3,True,0.5969917115573615,OsZrN3,5.847937131454084,5.847937131454084,0.0
4191,perov_4191.cif,0.283572869799,0.0018374654734000001,1.04,True,-0.0007593783463438775,SbTeO2N,6.4281749677376325,6.4281749677376325,0.0
4192,perov_4192.cif,0.161423830703,0.0036749309468000002,0.42,True,3.0112682732378984,RbMnO2F,5.522807371402993,5.522807371402993,0.0
4193,perov_4193.cif,0.22631354681,0.0036749309468000002,0.44,False,-2.4395621220742595e-16,GeGaO2F,7.834648706138136,4.4346487061381366,3.4
4194,perov_4194.cif,0.14654173130200002,0.0018374654734000001,2.86,True,-0.4791602828399822,BAuO2N,6.335071104139332,6.335071104139332,0.0
4195,perov_4195.cif,0.23199952792,0.0018374654734000001,1.4,True,0.0,BaBeO2N,5.580730461819146,5.580730461819146,0.0
4196,perov_4196.cif,0.39800830663599995,0.0018374654734000001,0.9,True,0.2185802810456928,ZrVO2N,5.578348587087847,5.578348587087847,0.0
4197,perov_4197.cif,0.208986982711,0.0018374654734000001,2.44,True,-0.03060298880037138,ZrKON2,5.116301267739781,5.116301267739781,0.0
4198,perov_4198.cif,0.322407035605,0.0036749309468000002,0.8,True,-0.8993678039901827,PbReO2F,6.206216636707913,6.206216636707913,0.0
4199,perov_4199.cif,0.27638026117,0.0018374654734000001,0.54,True,0.0009319761704862373,CaMoON2,5.089442559057827,5.089442559057827,0.0
4200,perov_4200.cif,0.23785210266600001,0.0036749309468000002,2.06,True,1.802982147717346e-14,AlIrOFN,6.280081519573276,6.280081519573276,0.0
4201,perov_4201.cif,0.185429772573,0.0018374654734000001,1.28,True,0.6680792085828848,BVO3,5.8053571671976645,5.8053571671976645,0.0
4202,perov_4202.cif,0.302506716871,0.0018374654734000001,1.22,True,0.019362077295319576,HfMoO2S,5.4230032489323134,5.4230032489323134,0.0
4203,perov_4203.cif,0.040603768478099996,0.0036749309468000002,3.52,True,0.0,IrRbO2F,5.936897613933178,5.936897613933178,0.0
4204,perov_4204.cif,0.22207987620900002,0.0036749309468000002,1.46,True,1.012412209014713,TiScOFN,5.800549478881326,5.800549478881326,0.0
4205,perov_4205.cif,0.24452212584199998,0.0018374654734000001,1.5,True,0.0014053121854438186,SiMoON2,5.938914480337722,5.938914480337722,0.0
4206,perov_4206.cif,0.32783764225900003,0.0018374654734000001,1.54,True,-0.3006851750296816,ZrIrO2S,5.850656428794844,5.850656428794844,0.0
4207,perov_4207.cif,0.261551416927,0.0018374654734000001,1.04,True,5.7268622285278063e-05,HgAsO3,6.523283605094342,6.523283605094342,0.0
4208,perov_4208.cif,0.055553042104099996,0.0036749309468000002,1.94,True,0.0,HgBaOFN,6.029996814600217,6.029996814600217,0.0
4209,perov_4209.cif,0.17742425493,0.0018374654734000001,0.6,True,1.9990670176719048,RbZrO2N,5.117859049661221,5.117859049661221,0.0
4210,perov_4210.cif,0.211847975405,0.0018374654734000001,1.46,True,0.06576082382857612,MoMgON2,5.662287732680158,5.662287732680158,0.0
4211,perov_4211.cif,0.219515397045,0.0036749309468000002,1.18,True,2.1490014521614285,PdFeOFN,6.346484624410733,6.346484624410733,0.0
4212,perov_4212.cif,0.230582425592,0.0036749309468000002,1.8,True,0.0,IrSbO2F,6.868544803723795,6.868544803723795,0.0
4213,perov_4213.cif,0.293007778238,0.0018374654734000001,1.56,True,0.945944519070938,IrBeO3,6.4509615467016665,6.4509615467016665,0.0
4214,perov_4214.cif,0.256639737059,0.0018374654734000001,1.14,True,3.2103228612766905,CdCoO2N,6.011727809822098,6.011727809822098,0.0
4215,perov_4215.cif,0.287611817042,0.0018374654734000001,1.0,True,-0.05357317688263396,CdCrON2,5.799119962571206,5.799119962571206,0.0
4216,perov_4216.cif,0.165326222399,0.0018374654734000001,3.06,True,1.8687430586563811,BAlN3,5.555371563334073,5.555371563334073,0.0
4217,perov_4217.cif,0.185207439563,0.0018374654734000001,1.46,True,1.1412779660488968,SrHgO2N,5.330463481489595,5.330463481489595,0.0
4218,perov_4218.cif,0.144097579395,0.0018374654734000001,1.74,True,-0.6507215254105694,ZnAuO2N,6.381636124799682,6.381636124799682,0.0
4219,perov_4219.cif,0.132885996682,0.0036749309468000002,2.08,True,5.246129560149684,RuCdOFN,6.472607487887252,6.472607487887252,0.0
4220,perov_4220.cif,0.28878593117400003,0.0018374654734000001,1.26,True,0.0008762304580969272,AlReO2N,5.558463442056679,5.558463442056679,0.0
4221,perov_4221.cif,0.241208029668,0.0018374654734000001,0.94,True,0.0004361568594042355,BaPtO2S,5.549758247315289,5.549758247315289,0.0
4222,perov_4222.cif,0.192446250276,0.0036749309468000002,0.58,True,0.00023506173800313945,CaZnO2F,5.654115485753137,5.654115485753137,0.0
4223,perov_4223.cif,0.194000567444,0.0036749309468000002,0.9,True,1.0179160966780785,CuCrOFN,6.2448241592732545,6.2448241592732545,0.0
4224,perov_4224.cif,0.11461839952099999,0.0036749309468000002,1.48,True,1.2163667664212043,LiPtO2F,6.2964023818754455,6.2964023818754455,0.0
4225,perov_4225.cif,0.25928575938299997,0.0036749309468000002,2.3,True,1.7169934516944494,HfTlO2F,6.436851368444223,6.436851368444223,0.0
4226,perov_4226.cif,0.0994524850806,0.0018374654734000001,3.1,True,-3.5914920327568547,RhRbO3,5.328608930690624,5.328608930690624,0.0
4227,perov_4227.cif,0.281000347911,0.0018374654734000001,3.98,True,-1.5918349141770256e-05,HfRbN3,4.9809788057362665,4.9809788057362665,0.0
4228,perov_4228.cif,0.17944655930999998,0.0018374654734000001,1.16,True,0.2606644862959406,PbTlO3,6.1941451033744634,6.1941451033744634,0.0
4229,perov_4229.cif,0.33385222114700003,0.0018374654734000001,1.48,True,2.0060308687607797,OsMnN3,5.873419304536784,5.873419304536784,0.0
4230,perov_4230.cif,0.20424205039999999,0.0036749309468000002,0.7,True,2.4148940376278456e-06,SrCuO2F,5.554816774434676,5.554816774434676,0.0
4231,perov_4231.cif,0.27313902549400004,0.0018374654734000001,1.2,True,1.1996888606536975,GeMnON2,5.842960009267381,5.842960009267381,0.0
4232,perov_4232.cif,0.22295997691,0.0018374654734000001,0.56,True,0.015266014352921076,GaWO2S,5.485252175894864,5.485252175894864,0.0
4233,perov_4233.cif,0.2501413897,0.0018374654734000001,1.0,True,-0.237023722506436,OsTiO2N,5.8674644031400565,5.8674644031400565,0.0
4234,perov_4234.cif,0.224725968572,0.0018374654734000001,0.34,True,0.9999934365505504,PbVO2S,5.479317770050041,5.479317770050041,0.0
4235,perov_4235.cif,0.0845498748901,0.0036749309468000002,2.8,True,2.8100089626340523,BeLiOFN,6.094085434875961,6.094085434875961,0.0
4236,perov_4236.cif,0.280704722078,0.0018374654734000001,1.58,True,-2.4399048256132487,MoPtO2N,6.171757210317604,6.171757210317604,0.0
4237,perov_4237.cif,0.166043842097,0.0018374654734000001,1.96,True,-5.864532842533516e-05,RbGaON2,4.952744526933408,4.952744526933408,0.0
4238,perov_4238.cif,0.320990627894,0.0018374654734000001,1.04,True,-0.9754426663737792,NbReO2S,5.630110779283871,5.630110779283871,0.0
4239,perov_4239.cif,0.309364020279,0.0018374654734000001,0.76,True,0.003062912154415898,ScCoO3,5.721632638775503,5.721632638775503,0.0
4240,perov_4240.cif,0.234266257606,0.0018374654734000001,0.46,True,-0.00017952177767580768,SnNbON2,5.848957274869383,5.848957274869383,0.0
4241,perov_4241.cif,0.179672701526,0.0018374654734000001,1.36,True,1.9999928390666784,AuGaO3,6.016475382073426,6.016475382073426,0.0
4242,perov_4242.cif,0.0978487182579,0.0018374654734000001,3.8,True,7.945053297388284,HgRbN3,5.423728213109379,5.423728213109379,0.0
4243,perov_4243.cif,0.26917471249499997,0.0036749309468000002,1.32,True,1.9749651842677824,TaMgO2F,6.18829717517859,6.18829717517859,0.0
4244,perov_4244.cif,0.24914714404399999,0.0018374654734000001,0.24,True,0.9905167458018482,SrTiO2N,4.906758582749356,4.906758582749356,0.0
4245,perov_4245.cif,0.155267957576,0.0018374654734000001,2.14,True,-4.651789550198044,FeCdO2N,5.943069712888937,5.943069712888937,0.0
4246,perov_4246.cif,0.35754169600599994,0.0036749309468000002,1.34,True,1.853435367655523,TaAlOFN,5.956810729582148,5.956810729582148,0.0
4247,perov_4247.cif,0.23396090356899998,0.0018374654734000001,2.58,True,0.0020520075216037274,AgLiN3,5.522179757611414,5.522179757611414,0.0
4248,perov_4248.cif,0.239798304863,0.0018374654734000001,0.92,True,0.9991676958093298,AuCrO3,6.200414687209265,6.200414687209265,0.0
4249,perov_4249.cif,0.22975721695700002,0.0036749309468000002,1.86,True,4.828060149290573,OsCuO2F,6.642407434624263,6.642407434624263,0.0
4250,perov_4250.cif,0.24128882788000003,0.0018374654734000001,1.38,True,1.7951661441621616,MoBeO2S,5.830800801779686,5.830800801779686,0.0
4251,perov_4251.cif,0.27141795683200004,0.0018374654734000001,1.24,True,-0.001704082741522262,TeSnO2N,6.275278902715403,6.275278902715403,0.0
4252,perov_4252.cif,0.301661204069,0.0018374654734000001,1.38,True,0.5433472020702758,RuOsN3,6.101335703400327,6.101335703400327,0.0
4253,perov_4253.cif,0.28810612949299996,0.0018374654734000001,0.7,True,1.4914474380196057,SbCoO3,6.164800466842487,6.164800466842487,0.0
4254,perov_4254.cif,0.321450068075,0.0018374654734000001,1.62,True,2.186323215135374,ReIrON2,6.110966254698161,6.110966254698161,0.0
4255,perov_4255.cif,0.246521864842,0.0018374654734000001,1.16,True,1.8596912482847048,MnZrN3,5.536681117146917,5.536681117146917,0.0
4256,perov_4256.cif,0.155707763557,0.0018374654734000001,1.64,True,2.9409992942631824,NiInON2,5.583874305594372,5.583874305594372,0.0
4257,perov_4257.cif,0.35364136016500003,0.0018374654734000001,1.34,True,1.1106846672840578,TaMoN3,5.72387761418753,5.72387761418753,0.0
4258,perov_4258.cif,0.103574584854,0.0018374654734000001,1.08,True,1.9999896986003116,MgMgO3,5.697567680675781,5.697567680675781,0.0
4259,perov_4259.cif,0.30825458071999995,0.0036749309468000002,1.82,True,3.66432841256907,OsReO2F,6.496789307738325,6.496789307738325,0.0
4260,perov_4260.cif,0.220354752569,0.0036749309468000002,1.16,True,0.9130336858353766,BaTlOFN,6.091124144075969,6.091124144075969,0.0
4261,perov_4261.cif,0.22236709510400002,0.0036749309468000002,0.98,True,1.0250887435123346,PtZrO2F,6.540326844003498,6.540326844003498,0.0
4262,perov_4262.cif,0.19012905459499999,0.0018374654734000001,1.7,True,1.2566574933534902,PbHgO2N,6.089040932297479,6.089040932297479,0.0
4263,perov_4263.cif,0.22598381667800002,0.0018374654734000001,0.72,True,1.9665351208144628,CaAlO2N,4.929585633563326,4.929585633563326,0.0
4264,perov_4264.cif,0.35966817554799996,0.0018374654734000001,1.08,False,-0.0003013653551779037,TiBO2N,6.195841141779827,5.2358411417798285,1.0
4265,perov_4265.cif,0.251988909778,0.0018374654734000001,2.0,True,-0.7717321323590899,BiAgON2,5.918582667576313,5.918582667576313,0.0
4266,perov_4266.cif,0.34243606706600005,0.0018374654734000001,2.06,True,0.001936604379604745,PtAsN3,6.4706343583971,6.4706343583971,0.0
4267,perov_4267.cif,0.0103242506293,0.0036749309468000002,2.5,True,0.0,GaNaOFN,5.535476240005994,5.535476240005994,0.0
4268,perov_4268.cif,0.20876285150199997,0.0018374654734000001,1.82,True,1.0723468929483708,SiAlO2N,5.752376053273264,5.752376053273264,0.0
4269,perov_4269.cif,0.15833509363700002,0.0018374654734000001,1.58,True,-0.0001809867260027329,InAgO2S,5.460406817397199,5.460406817397199,0.0
4270,perov_4270.cif,0.166580208201,0.0018374654734000001,1.76,True,3.9917512043078394,RbZrN3,5.046428155681753,5.046428155681753,0.0
4271,perov_4271.cif,0.27085465059,0.0018374654734000001,1.4,True,-0.8713071045717192,NbPdO2N,5.930739834306313,5.930739834306313,0.0
4272,perov_4272.cif,0.30431019726799996,0.0018374654734000001,1.32,True,-1.926405468450244,MoRuO2S,5.732334059753924,5.732334059753924,0.0
4273,perov_4273.cif,0.26963337367400003,0.0018374654734000001,1.04,True,-0.15853797108172218,MoZrN3,5.5892539788536535,5.5892539788536535,0.0
4274,perov_4274.cif,0.214619357278,0.0018374654734000001,1.42,True,3.666190562826884,FeBiO3,5.8959060811495165,5.8959060811495165,0.0
4275,perov_4275.cif,0.43053866814400005,0.0036749309468000002,1.04,True,0.0,YSiOFN,6.129648210968318,6.129648210968318,0.0
4276,perov_4276.cif,0.256479812638,0.0018374654734000001,1.54,True,1.4706068072342902,NbCuO2S,5.756303294848924,5.756303294848924,0.0
4277,perov_4277.cif,0.107612599754,0.0036749309468000002,2.26,True,0.055987425854805664,AlHgO2F,6.2956886701343535,6.2956886701343535,0.0
4278,perov_4278.cif,0.344903812826,0.0036749309468000002,0.78,True,-1.3013556084014053,SrReO2F,5.433041345593716,5.433041345593716,0.0
4279,perov_4279.cif,0.00499405952104,0.0036749309468000002,2.6,True,0.0,InKOFN,5.323428621692856,5.323428621692856,0.0
4280,perov_4280.cif,0.39121469091600003,0.0036749309468000002,0.46,True,1.9628563870440945,LaVOFN,5.7334748533276025,5.7334748533276025,0.0
4281,perov_4281.cif,0.18212335781300001,0.0018374654734000001,2.34,True,5.243995943179918,RhInON2,5.558259122769961,5.558259122769961,0.0
4282,perov_4282.cif,0.14958705665799998,0.0018374654734000001,1.44,True,1.9999998398703025,AuScO3,6.0682217354612895,6.0682217354612895,0.0
4283,perov_4283.cif,0.330154719911,0.0018374654734000001,1.28,True,3.93242290425356,FeSiON2,5.986863506389887,5.986863506389887,0.0
4284,perov_4284.cif,0.17106321260899998,0.0036749309468000002,0.7,True,-4.672712008487368e-15,LiMoOFN,5.8221346309556425,5.8221346309556425,0.0
4285,perov_4285.cif,0.282998555696,0.0018374654734000001,1.44,True,0.5091522705151166,PtMnO2N,6.113705287908428,6.113705287908428,0.0
4286,perov_4286.cif,0.19114449849399998,0.0018374654734000001,2.04,True,4.070305213423615,CdInN3,5.552310314573176,5.552310314573176,0.0
4287,perov_4287.cif,0.198211749069,0.0018374654734000001,1.54,True,-0.0006049806759483946,AlCuO2N,5.6830500642259025,5.6830500642259025,0.0
4288,perov_4288.cif,0.133422422775,0.0036749309468000002,1.62,True,3.6415028719716465,CrLaOFN,5.771198337687171,5.771198337687171,0.0
4289,perov_4289.cif,0.13753418851,0.0018374654734000001,3.66,True,-1.173179417377883,CdRbON2,5.2856289965234255,5.2856289965234255,0.0
4290,perov_4290.cif,-0.025939392499599995,0.0036749309468000002,3.06,True,0.0,CuRbOFN,5.691867708804869,5.691867708804869,0.0
4291,perov_4291.cif,0.316921996271,0.0018374654734000001,0.62,True,1.1892944406001684,BaRuO2N,5.486486743781046,5.486486743781046,0.0
4292,perov_4292.cif,0.21879821741500002,0.0018374654734000001,1.5,True,9.849726646748992e-05,AlPdO2S,5.5010941275671215,5.5010941275671215,0.0