,id,fermi level,fermi width,e_form,gap is direct,mu_b,formula,vbm,cbm,gap gllbsc
3406,perov_3406.cif,0.210580712411,0.0018374654734000001,1.98,True,-0.014427679560749472,RhHgON2,6.1687980282219295,6.1687980282219295,0.0
3407,perov_3407.cif,0.206149387509,0.0018374654734000001,1.04,True,4.9397908445966765,FeAlO2S,5.401100776121391,5.401100776121391,0.0
3408,perov_3408.cif,0.216197466511,0.0018374654734000001,1.16,True,1.9995020311698453,AgGeO2N,6.096113341770628,6.096113341770628,0.0
3409,perov_3409.cif,0.29690682658399997,0.0018374654734000001,1.18,True,3.3915243509644983,OsTaO3,6.116395060242187,6.116395060242187,0.0
3410,perov_3410.cif,0.264732389071,0.0018374654734000001,0.8,True,-4.0501203115101925,MnGeO2N,5.884167500156418,5.884167500156418,0.0
3411,perov_3411.cif,0.135630841145,0.0036749309468000002,1.4,True,7.371219014817253e-15,AlInO2F,5.672591131173737,5.672591131173737,0.0
3412,perov_3412.cif,0.283210808874,0.0036749309468000002,0.88,True,-1.7372989048376446e-15,BaTeOFN,6.091124144075969,6.091124144075969,0.0
3413,perov_3413.cif,0.274164225879,0.0018374654734000001,0.56,True,0.0,TiVON2,5.480208459447577,5.480208459447577,0.0
3414,perov_3414.cif,0.23972003585999999,0.0036749309468000002,1.04,True,2.2697267853940826,VNiO2F,6.225284041879325,6.225284041879325,0.0
3415,perov_3415.cif,0.162651839522,0.0018374654734000001,1.8,True,-0.6809983406678374,TiKO2N,5.097435801519241,5.097435801519241,0.0
3416,perov_3416.cif,0.176424469808,0.0018374654734000001,0.68,True,0.9716422813878296,PbInO3,5.525088574789238,5.525088574789238,0.0
3417,perov_3417.cif,0.10541846171199999,0.0018374654734000001,1.02,True,-0.09160529489958827,LiYO2S,5.080980207383369,5.080980207383369,0.0
3418,perov_3418.cif,0.249025566023,0.0018374654734000001,0.86,True,-0.0010857083533746276,MgSbO2N,5.956339913844801,5.956339913844801,0.0
3419,perov_3419.cif,0.220585223072,0.0036749309468000002,1.06,True,-1.0152165830007014e-13,SrBiOFN,5.421636379983378,5.421636379983378,0.0
3420,perov_3420.cif,0.27811092465500004,0.0018374654734000001,1.88,True,-0.00015129398678336923,ScBiON2,5.59101190904046,5.59101190904046,0.0
3421,perov_3421.cif,0.312613331541,0.0036749309468000002,0.3,True,0.9905859086930916,SrNbO2F,5.430328892246406,5.430328892246406,0.0
3422,perov_3422.cif,0.174014403625,0.0036749309468000002,0.88,True,1.0004036554373152,KCrOFN,5.5211263306796585,5.5211263306796585,0.0
3423,perov_3423.cif,0.289878088575,0.0018374654734000001,1.32,True,-2.92704778300266,FeOsO2N,6.06166388244105,6.06166388244105,0.0
3424,perov_3424.cif,0.0868510214757,0.0018374654734000001,4.24,True,0.0,CsRbN3,4.558822058114508,4.558822058114508,0.0
3425,perov_3425.cif,0.22136252734200002,0.0018374654734000001,2.16,True,0.3187306833645671,AlBaON2,5.092144567080597,5.092144567080597,0.0
3426,perov_3426.cif,0.24121401738499998,0.0018374654734000001,0.92,True,3.499902252360368,RhFeO2S,5.726311449398482,5.726311449398482,0.0
3427,perov_3427.cif,0.30803627060899996,0.0018374654734000001,1.28,True,1.022021074293523,InFeN3,5.456299386610642,5.456299386610642,0.0
3428,perov_3428.cif,-0.040077218980300006,0.0036749309468000002,1.62,True,0.0,NaLiO2F,5.506687197946202,5.506687197946202,0.0
3429,perov_3429.cif,0.23216108988499998,0.0018374654734000001,1.7,True,0.3792227984072128,ZnNiN3,5.960506748313898,5.960506748313898,0.0
3430,perov_3430.cif,-0.0249708601491,0.0018374654734000001,3.12,True,0.0,AuKO2S,5.476136982683927,5.476136982683927,0.0
3431,perov_3431.cif,0.35452775911,0.0036749309468000002,1.0,True,0.059485673024585836,LaSbO2F,6.1285519620450675,6.1285519620450675,0.0
3432,perov_3432.cif,0.213887594643,0.0018374654734000001,1.76,True,1.6688735186109689,SnPbN3,5.775695089558304,5.775695089558304,0.0
3433,perov_3433.cif,0.268999882234,0.0018374654734000001,1.68,True,-0.4306227077780749,SnCuON2,5.983042027120358,5.983042027120358,0.0
3434,perov_3434.cif,0.196634123439,0.0018374654734000001,1.52,True,2.7648444624539823,NiTiON2,5.704625171336235,5.704625171336235,0.0
3435,perov_3435.cif,0.165641919147,0.0018374654734000001,0.82,True,-0.5937025902741805,NiGeO2S,5.8981819948323935,5.8981819948323935,0.0
3436,perov_3436.cif,0.309751575149,0.0018374654734000001,1.94,True,1.9716063357358529,AuIrN3,6.526255324658954,6.526255324658954,0.0
3437,perov_3437.cif,0.283144265688,0.0018374654734000001,1.46,True,-1.6893272283410634,CoOsO3,6.1749358285620435,6.1749358285620435,0.0
3438,perov_3438.cif,0.145357936213,0.0018374654734000001,2.12,True,0.0007816961784765653,AsNaON2,5.698977016523008,5.698977016523008,0.0
3439,perov_3439.cif,0.261883543559,0.0018374654734000001,1.78,True,0.3527981711480805,PtPtON2,6.581347730024572,6.581347730024572,0.0
3440,perov_3440.cif,0.20553359146800002,0.0018374654734000001,2.56,True,-3.0278797933100847,CrRbN3,5.0684177825915295,5.0684177825915295,0.0
3441,perov_3441.cif,0.22559479079199998,0.0018374654734000001,1.96,True,-8.415092345615099e-06,AlCaON2,4.8950631875118855,4.8950631875118855,0.0
3442,perov_3442.cif,0.194005502663,0.0018374654734000001,0.94,True,-0.04102596681840567,RhGeO2S,5.87112497279701,5.87112497279701,0.0
3443,perov_3443.cif,0.193599312916,0.0018374654734000001,0.84,True,0.6456278301220983,RhTiON2,5.6784560620921205,5.6784560620921205,0.0
3444,perov_3444.cif,0.13988825877900002,0.0018374654734000001,1.74,True,0.7311610100919133,CdAgO2S,5.864532625452236,5.864532625452236,0.0
3445,perov_3445.cif,0.101759899222,0.0018374654734000001,2.84,True,1.333044018239109,MgRbO2N,5.148423899500294,5.148423899500294,0.0
3446,perov_3446.cif,0.14223026837400002,0.0018374654734000001,1.06,True,0.9960724498399112,CuSnO3,6.067730449808542,6.067730449808542,0.0
3447,perov_3447.cif,0.196710330034,0.0018374654734000001,0.96,True,1.06682850945184,GeRuO2S,5.924751458028016,5.924751458028016,0.0
3448,perov_3448.cif,0.0965854112385,0.0018374654734000001,2.76,True,3.4406243858329955,NaAgN3,5.462182575976343,5.462182575976343,0.0
3449,perov_3449.cif,0.15633578170499998,0.0018374654734000001,0.84,True,-0.0003561654955347805,MgAsO2S,5.876753773859228,5.876753773859228,0.0
3450,perov_3450.cif,0.18972651374699998,0.0018374654734000001,1.5,True,3.163506225493208,WPbO2S,5.7036980078542925,5.7036980078542925,0.0
3451,perov_3451.cif,0.112329683949,0.0036749309468000002,1.34,True,2.907388088191846,TlMgOFN,6.514434859473623,6.514434859473623,0.0
3452,perov_3452.cif,0.204903689675,0.0018374654734000001,3.48,True,-3.242532312318083,WCsO2N,5.245709434938197,5.245709434938197,0.0
3453,perov_3453.cif,0.238113894221,0.0036749309468000002,0.5,True,-1.7705501576921538e-15,TlAlO2F,6.3595093731045855,6.3595093731045855,0.0
3454,perov_3454.cif,0.167639403623,0.0018374654734000001,0.98,True,3.538745785368292,NiFeO2S,5.75270109972712,5.75270109972712,0.0
3455,perov_3455.cif,0.34498581829400005,0.0036749309468000002,0.44,True,4.899499989783468e-15,YBeO2F,6.208768813741405,6.208768813741405,0.0
3456,perov_3456.cif,0.293575442251,0.0018374654734000001,1.58,True,-0.14298724958636075,HgIrON2,6.441916802396202,6.441916802396202,0.0
3457,perov_3457.cif,0.250834683577,0.0036749309468000002,1.46,True,2.8614699560058057,OsNbO2F,6.49354577676118,6.49354577676118,0.0
3458,perov_3458.cif,0.22181442899599998,0.0036749309468000002,1.76,True,0.0,LaRbO2F,5.297277161328972,5.297277161328972,0.0
3459,perov_3459.cif,0.20215693160700002,0.0036749309468000002,2.28,True,4.214936161588891,OsBiOFN,6.483151337047665,6.483151337047665,0.0
3460,perov_3460.cif,0.18480826820799998,0.0036749309468000002,1.12,True,0.7515726742043007,BeZrO2F,6.374815634852384,6.374815634852384,0.0
3461,perov_3461.cif,0.204799296665,0.0018374654734000001,2.12,True,-1.7372163431470735,NiCsO2N,5.245709434938197,5.245709434938197,0.0
3462,perov_3462.cif,0.296474000555,0.0018374654734000001,1.16,True,2.905489212901057,WFeO2S,5.75270109972712,5.75270109972712,0.0
3463,perov_3463.cif,0.166921362174,0.0018374654734000001,1.22,True,0.6904541055315079,NiPbO2S,5.7036980078542925,5.7036980078542925,0.0
3464,perov_3464.cif,0.114061337019,0.0036749309468000002,1.62,True,0.0,InCaOFN,5.2229142814214375,5.2229142814214375,0.0
3465,perov_3465.cif,0.361352629185,0.0018374654734000001,1.8,True,-1.7938325079873658,ReCoO2N,5.893149224327061,5.893149224327061,0.0
3466,perov_3466.cif,0.35459606191200005,0.0018374654734000001,1.62,True,4.409516325817449,ReCrON2,5.684734969765273,5.684734969765273,0.0
3467,perov_3467.cif,0.197546010104,0.0018374654734000001,0.62,True,0.007737479257443169,HgZrO3,6.0510586596194775,6.0510586596194775,0.0
3468,perov_3468.cif,0.24311252751200002,0.0036749309468000002,1.28,True,2.4092247002956118,NbAsOFN,6.5527439103241285,6.5527439103241285,0.0
3469,perov_3469.cif,0.205510778288,0.0018374654734000001,0.56,True,8.403096167131794e-05,CsTaO2S,5.013276541256844,5.013276541256844,0.0
3470,perov_3470.cif,0.18537606019900002,0.0018374654734000001,2.24,True,-0.07694522406925358,NaBON2,5.463025026120678,5.463025026120678,0.0
3471,perov_3471.cif,0.278168062331,0.0018374654734000001,0.82,False,-1.9040415821791527e-07,TiBeO3,6.8112594423019575,5.0112594423019585,1.8
3472,perov_3472.cif,0.163309687678,0.0018374654734000001,2.58,True,6.410724884956691,CoInN3,5.519334005129385,5.519334005129385,0.0
3473,perov_3473.cif,0.0672766800555,0.0036749309468000002,1.62,True,0.8887075256807719,CuHgO2F,6.729733088497635,6.729733088497635,0.0
3474,perov_3474.cif,0.311246851774,0.0036749309468000002,1.04,True,1.1916962660899095,ScCoO2F,6.104514376486488,6.104514376486488,0.0
3475,perov_3475.cif,0.154587258537,0.0018374654734000001,0.9,True,-0.1810880452177698,NaMoON2,5.359874895742457,5.359874895742457,0.0
3476,perov_3476.cif,0.245571708668,0.0018374654734000001,1.5,True,2.999991147697936,CsTaN3,5.099953787603399,5.099953787603399,0.0
3477,perov_3477.cif,0.164824998657,0.0018374654734000001,0.1,True,0.9998959203497612,KNbO2N,5.250491311099615,5.250491311099615,0.0
3478,perov_3478.cif,0.259310757727,0.0018374654734000001,0.96,True,3.9999993771307385,CrSiO2S,5.742566669660634,5.742566669660634,0.0
3479,perov_3479.cif,0.21374841876800002,0.0018374654734000001,1.54,True,0.7737507849877259,ReCaO3,5.190275327698639,5.190275327698639,0.0
3480,perov_3480.cif,0.28760474627300003,0.0018374654734000001,0.6,True,1.5220036844585434,BaRhO3,5.4751703453885785,5.4751703453885785,0.0
3481,perov_3481.cif,0.326933120634,0.0036749309468000002,1.34,True,-8.004476589591286e-15,TeSiOFN,6.832692604943272,6.832692604943272,0.0
3482,perov_3482.cif,0.340450086199,0.0036749309468000002,0.76,False,-1.0546914107503348e-14,LaInOFN,6.314546176310393,4.814546176310391,1.5
3483,perov_3483.cif,0.18103134581099997,0.0018374654734000001,1.0,True,2.0539442666222296,BeMnO2N,5.958990274617768,5.958990274617768,0.0
3484,perov_3484.cif,0.368374177381,0.0018374654734000001,2.2,True,0.09159502762361704,OsAsN3,6.3043104618714425,6.3043104618714425,0.0
3485,perov_3485.cif,0.114273357971,0.0036749309468000002,1.96,True,3.241546925216713e-15,SnCsO2F,5.610358978673107,5.610358978673107,0.0
3486,perov_3486.cif,0.270593620663,0.0018374654734000001,1.58,True,3.5633521926053535,WGeO2S,5.8981819948323935,5.8981819948323935,0.0
3487,perov_3487.cif,0.18580462159000002,0.0018374654734000001,0.86,True,0.006825672622589707,GaMgO2S,5.312663594485726,5.312663594485726,0.0
3488,perov_3488.cif,0.278532915748,0.0018374654734000001,0.62,True,0.006990946261325347,WTiON2,5.704625171336235,5.704625171336235,0.0
3489,perov_3489.cif,0.212879204578,0.0018374654734000001,1.22,True,1.8378109379760976,RhZrN3,5.699471867919883,5.699471867919883,0.0
3490,perov_3490.cif,0.335165097222,0.0018374654734000001,0.48,True,-0.00015711262213358168,HfZrO3,5.557099056509028,5.557099056509028,0.0
3491,perov_3491.cif,0.07953187733799999,0.0036749309468000002,1.74,True,0.0,InBaOFN,5.433195356970712,5.433195356970712,0.0
3492,perov_3492.cif,0.195939055841,0.0018374654734000001,0.6,True,1.7783691582643366,CrTaN3,5.670038474406897,5.670038474406897,0.0
3493,perov_3493.cif,0.38593183396700004,0.0018374654734000001,0.78,True,0.17767815605622062,YWO3,5.695418710266024,5.695418710266024,0.0
3494,perov_3494.cif,0.151780280155,0.0018374654734000001,1.34,True,1.3902966471250269,LiNiO2S,5.418510282323469,5.418510282323469,0.0
3495,perov_3495.cif,0.170779109811,0.0018374654734000001,1.22,True,0.3623087203665633,RhPbO2S,5.6775331518330825,5.6775331518330825,0.0
3496,perov_3496.cif,0.14642300273,0.0018374654734000001,3.12,True,-2.5125297731750544,RhCsO2N,5.221645532553244,5.221645532553244,0.0
3497,perov_3497.cif,0.120568962047,0.0018374654734000001,2.3,True,4.9998096660268105,AuYN3,5.887269891842442,5.887269891842442,0.0
3498,perov_3498.cif,0.047087764403,0.0036749309468000002,1.08,True,0.0,NaZnO2F,5.954552251657031,5.954552251657031,0.0
3499,perov_3499.cif,0.352000413856,0.0018374654734000001,1.26,True,0.6205754902164831,InSiN3,5.6326708788417115,5.6326708788417115,0.0
3500,perov_3500.cif,0.206674452629,0.0018374654734000001,1.04,True,-0.35936581760984976,BaAgO3,5.5103671772306635,5.5103671772306635,0.0
3501,perov_3501.cif,0.20245377295000003,0.0036749309468000002,0.2,False,4.359201496790308e-16,CuTiO2F,7.4948038301484345,4.894803830148437,2.6
3502,perov_3502.cif,0.207207420673,0.0018374654734000001,1.6,True,0.26372923211988386,BMoO3,5.899040333259968,5.899040333259968,0.0
3503,perov_3503.cif,0.23267030335799999,0.0018374654734000001,0.68,True,2.958120994754359,HgMnO3,6.077425927363968,6.077425927363968,0.0
3504,perov_3504.cif,0.33828049809199995,0.0018374654734000001,1.94,True,2.283010666616044,BiBN3,5.836876029245593,5.836876029245593,0.0
3505,perov_3505.cif,0.19192790028700002,0.0018374654734000001,1.6,True,0.08078536303756324,TeHgO3,6.569397716772459,6.569397716772459,0.0
3506,perov_3506.cif,0.382878084079,0.0018374654734000001,0.92,True,0.01583326888159675,LaNiN3,5.5158515634497975,5.5158515634497975,0.0
3507,perov_3507.cif,0.180837063449,0.0036749309468000002,1.26,True,2.5434807167438582,VTeOFN,6.461464942647988,6.461464942647988,0.0
3508,perov_3508.cif,0.20970262073399998,0.0036749309468000002,1.72,True,-4.984517718741004e-15,AlSbOFN,6.1603498614040175,6.1603498614040175,0.0
3509,perov_3509.cif,0.243997769619,0.0036749309468000002,0.56,True,1.8336310204464328,BaNiO2F,5.86848002237745,5.86848002237745,0.0
3510,perov_3510.cif,0.15355762355,0.0018374654734000001,2.24,True,0.021563907446301656,PdNaN3,5.464640804953889,5.464640804953889,0.0
3511,perov_3511.cif,0.17087326063000002,0.0018374654734000001,2.16,True,4.407906729700887,RuTlO3,6.377257560838599,6.377257560838599,0.0
3512,perov_3512.cif,0.22604533793200002,0.0018374654734000001,0.94,True,-3.9683576681176796e-05,TeGaO2S,5.733509441041952,5.733509441041952,0.0
3513,perov_3513.cif,0.21102194059300003,0.0018374654734000001,1.6,True,-0.709009557372278,TiAuO2S,5.878615414087548,5.878615414087548,0.0
3514,perov_3514.cif,0.415876904657,0.0018374654734000001,1.5,True,0.8269789675910391,ZrAsO2N,6.026987951883815,6.026987951883815,0.0
3515,perov_3515.cif,0.205996938168,0.0018374654734000001,0.7,True,-0.8845198721856355,RuVO2S,5.641298370335648,5.641298370335648,0.0
3516,perov_3516.cif,0.165072376564,0.0018374654734000001,3.48,True,0.0,ZrRbO2S,4.9606606145162955,4.9606606145162955,0.0
3517,perov_3517.cif,0.31341352286999996,0.0018374654734000001,1.56,True,0.061081550495842414,RhMnN3,5.724307109023474,5.724307109023474,0.0
3518,perov_3518.cif,0.413043965703,0.0018374654734000001,1.02,True,2.8177036162374027,HfMnO3,5.581313913271767,5.581313913271767,0.0
3519,perov_3519.cif,0.159864721491,0.0018374654734000001,1.98,True,2.6898625790402084,CuCuO2N,6.07485726577288,6.07485726577288,0.0
3520,perov_3520.cif,0.322258494636,0.0036749309468000002,1.36,True,0.00937396859107942,AsSiO2F,6.832579614054004,6.832579614054004,0.0
3521,perov_3521.cif,0.277926646461,0.0036749309468000002,1.7,True,0.0,IrIrO2F,7.002040835128133,7.002040835128133,0.0
3522,perov_3522.cif,0.152660558088,0.0018374654734000001,3.58,True,5.061302630860273,OsRbO3,5.4674136037373575,5.4674136037373575,0.0
3523,perov_3523.cif,0.007644143000679999,0.0036749309468000002,3.66,True,0.0,AlRbOFN,5.32476200393055,5.32476200393055,0.0
3524,perov_3524.cif,0.171071916175,0.0018374654734000001,1.22,True,0.004525156093723838,CuPdO2S,5.880356719170238,5.880356719170238,0.0
3525,perov_3525.cif,0.193710163348,0.0018374654734000001,2.04,True,1.7329889046515563,CoAuON2,6.293635883638818,6.293635883638818,0.0
3526,perov_3526.cif,0.161005837861,0.0036749309468000002,2.2,True,0.8831100592187762,HfSrO2F,5.2597488981781035,5.2597488981781035,0.0
3527,perov_3527.cif,0.120485662072,0.0018374654734000001,1.76,True,2.07401007511654,AgPbO2N,5.895102856028293,5.895102856028293,0.0
3528,perov_3528.cif,0.107071237915,0.0018374654734000001,3.0,True,-4.300118223335844,MnCsO2S,4.916697378130487,4.916697378130487,0.0
3529,perov_3529.cif,0.18295159686999998,0.0036749309468000002,1.0,True,3.0032278982674785,CrGaOFN,5.838410229556726,5.838410229556726,0.0
3530,perov_3530.cif,0.0529380783444,0.0018374654734000001,2.78,True,0.0,AgCsO2S,5.093795253699552,5.093795253699552,0.0
3531,perov_3531.cif,0.16219551106,0.0018374654734000001,1.16,True,-3.8661804752806335,MnPbO2N,5.690145620790875,5.690145620790875,0.0
3532,perov_3532.cif,0.195969225729,0.0018374654734000001,1.06,False,-0.00022761679638085586,YLaO2S,6.134351796421508,4.034351796421507,2.1
3533,perov_3533.cif,0.338196312532,0.0018374654734000001,1.1,True,0.2439590502525633,PbOsN3,5.926145888059643,5.926145888059643,0.0
3534,perov_3534.cif,0.274615976515,0.0018374654734000001,1.28,True,0.5958768854037544,ZrSbO2S,5.7391118901746125,5.7391118901746125,0.0
3535,perov_3535.cif,0.25931386992,0.0018374654734000001,2.9,True,1.8139966375425016,WHgON2,6.1972268736229,6.1972268736229,0.0
3536,perov_3536.cif,0.219700132015,0.0018374654734000001,1.88,True,1.979210086613317,GaBeON2,5.741719488712082,5.741719488712082,0.0
3537,perov_3537.cif,0.237482457868,0.0018374654734000001,1.26,True,1.1149519359613116,AuMnO2N,6.156992481480991,6.156992481480991,0.0
3538,perov_3538.cif,0.413218608491,0.0018374654734000001,1.52,True,3.915647219981316,WSiO3,6.170053241180033,6.170053241180033,0.0
3539,perov_3539.cif,0.0532498700743,0.0018374654734000001,1.26,True,0.0,CsSrO3,4.512028226117993,4.512028226117993,0.0
3540,perov_3540.cif,0.35993128195,0.0018374654734000001,1.62,True,1.780082450402226,MoAsN3,6.0254396620338095,6.0254396620338095,0.0
3541,perov_3541.cif,0.21429418191799998,0.0018374654734000001,2.28,True,3.3176611680116053,RbAsN3,5.440251682226363,5.440251682226363,0.0
3542,perov_3542.cif,0.239412591371,0.0018374654734000001,1.56,True,0.6502034484172083,TiBiON2,5.627363158264379,5.627363158264379,0.0
3543,perov_3543.cif,0.23394855389000002,0.0018374654734000001,1.3,True,1.9810608168114323,PtZrN3,6.002220727768563,6.002220727768563,0.0
3544,perov_3544.cif,0.356490831222,0.0018374654734000001,1.18,True,0.03317463462106573,ZrRhN3,5.699471867919883,5.699471867919883,0.0
3545,perov_3545.cif,0.227849908821,0.0018374654734000001,0.2,False,0.0005028802632540586,GeTiO3,7.537035989728483,4.137035989728484,3.4
3546,perov_3546.cif,0.37987881318899996,0.0036749309468000002,1.46,True,0.0,HfNiOFN,6.115013700682717,6.115013700682717,0.0
3547,perov_3547.cif,0.279570746787,0.0018374654734000001,1.6,True,0.004430663607736918,AsTeO2N,6.5432650908412295,6.5432650908412295,0.0
3548,perov_3548.cif,0.274778458756,0.0018374654734000001,0.74,True,0.022274373193717167,CuReO2N,5.941681253182904,5.941681253182904,0.0
3549,perov_3549.cif,0.244548683105,0.0018374654734000001,1.66,True,1.6190077882024203,GePdN3,6.013734008439901,6.013734008439901,0.0
3550,perov_3550.cif,0.126424053983,0.0036749309468000002,1.56,True,-0.1989600610117735,ZnPbOFN,6.2924235209867705,6.2924235209867705,0.0
3551,perov_3551.cif,0.25955692603700004,0.0036749309468000002,0.78,True,0.1409149644208476,IrTiOFN,6.371300570900327,6.371300570900327,0.0
3552,perov_3552.cif,0.227298618455,0.0036749309468000002,1.38,True,2.142104327571511,AlCrOFN,5.842054683225903,5.842054683225903,0.0
3553,perov_3553.cif,0.141881673622,0.0018374654734000001,1.2,True,0.0007368375207708043,MgHfON2,5.512262474045408,5.512262474045408,0.0