,id,fermi level,fermi width,e_form,gap is direct,mu_b,formula,vbm,cbm,gap gllbsc
5031,perov_5031.cif,0.0539924978103,0.0036749309468000002,1.08,True,0.0,TlCaO2F,5.8966743141981075,5.8966743141981075,0.0
5032,perov_5032.cif,0.008710946147120001,0.0036749309468000002,2.68,True,0.0,AsKO2F,5.967966594177513,5.967966594177513,0.0
5033,perov_5033.cif,0.302740592953,0.0018374654734000001,1.86,True,2.7048791265088137,CrTeN3,6.010958137326906,6.010958137326906,0.0
5034,perov_5034.cif,0.216575554229,0.0018374654734000001,1.78,True,5.323916732088369,MnBiN3,5.672801652363479,5.672801652363479,0.0
5035,perov_5035.cif,0.207930551954,0.0036749309468000002,1.18,True,-1.2817084832068757,NiMnOFN,6.222360180621129,6.222360180621129,0.0
5036,perov_5036.cif,0.22492692565699998,0.0018374654734000001,1.86,True,0.3953756328331365,SiCuON2,6.105900922416979,6.105900922416979,0.0
5037,perov_5037.cif,0.25235210777399997,0.0018374654734000001,2.3,True,0.44244887325702464,CsNiON2,5.208973138131385,5.208973138131385,0.0
5038,perov_5038.cif,0.228265700742,0.0018374654734000001,1.8,True,-0.6942332591998596,PdRhO2N,6.017146230347339,6.017146230347339,0.0
5039,perov_5039.cif,0.24978748041299997,0.0018374654734000001,1.62,True,0.0009911606474553023,PdRuON2,6.029582815810965,6.029582815810965,0.0
5040,perov_5040.cif,0.448632396817,0.0036749309468000002,0.7,True,2.4712140042973275e-15,ZrBeO2F,6.374815634852384,6.374815634852384,0.0
5041,perov_5041.cif,0.242422226014,0.0018374654734000001,1.8,True,0.0006593269594539207,TeAgON2,6.271390192584562,6.271390192584562,0.0
5042,perov_5042.cif,0.22417453962699999,0.0018374654734000001,1.62,True,1.7752148215297512,OsTlO2S,6.240973063432037,6.240973063432037,0.0
5043,perov_5043.cif,0.2724379252,0.0018374654734000001,1.08,False,8.013034836196195e-05,AlOsN3,6.102738072235737,5.302738072235735,0.8
5044,perov_5044.cif,0.246116543308,0.0018374654734000001,1.08,True,0.21893895430541294,IrNbN3,6.065140924032782,6.065140924032782,0.0
5045,perov_5045.cif,0.340307418615,0.0018374654734000001,1.46,True,0.6486831637031275,TaIrON2,6.1381540296378585,6.1381540296378585,0.0
5046,perov_5046.cif,0.166689033432,0.0018374654734000001,1.36,True,0.006664295383483676,SnAgO3,6.056856310990658,6.056856310990658,0.0
5047,perov_5047.cif,0.197096830696,0.0036749309468000002,0.78,True,2.470924471883039e-15,SbYO2F,6.196045819866401,6.196045819866401,0.0
5048,perov_5048.cif,0.246773229875,0.0018374654734000001,0.64,True,-0.9720584791404084,FeMnO3,5.77950681816476,5.77950681816476,0.0
5049,perov_5049.cif,0.360128939335,0.0018374654734000001,2.54,True,1.7329001099076182,RePtN3,6.119565112674168,6.119565112674168,0.0
5050,perov_5050.cif,0.0566003116267,0.0018374654734000001,3.06,True,0.0,FeBaO2S,5.209646231842763,5.209646231842763,0.0
5051,perov_5051.cif,0.151663492624,0.0036749309468000002,1.88,True,4.048375236365467,RuAuO2F,6.872041947004306,6.872041947004306,0.0
5052,perov_5052.cif,0.244456774386,0.0018374654734000001,1.82,True,0.035559864009336195,NiCdN3,5.955139331457213,5.955139331457213,0.0
5053,perov_5053.cif,0.173102559483,0.0018374654734000001,1.72,True,2.6716193848428897,WNaO2S,5.359639445105255,5.359639445105255,0.0
5054,perov_5054.cif,0.183805236782,0.0018374654734000001,0.8,False,0.00016145147348822775,SbInO2S,5.85772116237216,5.25772116237216,0.6
5055,perov_5055.cif,0.060289932473,0.0018374654734000001,1.0,True,1.0730652672189027,NaPbO3,5.432952124070982,5.432952124070982,0.0
5056,perov_5056.cif,0.17360584972399998,0.0018374654734000001,1.76,True,0.000993946207856314,TlInON2,5.836595113969206,5.836595113969206,0.0
5057,perov_5057.cif,0.142606507103,0.0036749309468000002,1.44,True,1.98802890395417,AuScOFN,6.4289563828481615,6.4289563828481615,0.0
5058,perov_5058.cif,0.329694593202,0.0036749309468000002,0.7,True,0.9113304705361926,LaLaO2F,5.574564099198936,5.574564099198936,0.0
5059,perov_5059.cif,0.209665376149,0.0018374654734000001,0.94,True,0.6249552747669823,GaNiO3,5.6989850366123935,5.6989850366123935,0.0
5060,perov_5060.cif,0.18045795675,0.0018374654734000001,1.66,True,0.8604002871855521,AsPbON2,6.064819133614563,6.064819133614563,0.0
5061,perov_5061.cif,0.406622924326,0.0018374654734000001,0.76,True,0.00017554160908161978,BiReN3,5.758612895150244,5.758612895150244,0.0
5062,perov_5062.cif,0.23485139946400002,0.0036749309468000002,0.9,True,0.996874350332604,ScYO2F,5.750631863102916,5.750631863102916,0.0
5063,perov_5063.cif,0.380726036122,0.0018374654734000001,1.18,True,0.8422443710562834,TaFeO3,5.893034230745451,5.893034230745451,0.0
5064,perov_5064.cif,0.24671450641800002,0.0036749309468000002,1.28,True,7.939192302431068e-08,PbPtOFN,6.581380235081978,6.581380235081978,0.0
5065,perov_5065.cif,0.153200089321,0.0018374654734000001,1.26,True,0.6146030694660852,SrTlO2S,5.219111023036525,5.219111023036525,0.0
5066,perov_5066.cif,0.172033569033,0.0018374654734000001,1.12,True,3.764758981234675,FeCaO2S,5.008017182841677,5.008017182841677,0.0
5067,perov_5067.cif,0.23109019653,0.0018374654734000001,1.04,True,0.002494646331731687,SiWN3,6.041330183527848,6.041330183527848,0.0
5068,perov_5068.cif,0.23141433708700002,0.0018374654734000001,1.74,True,-0.0025736092826462802,CaCuON2,5.232544115397376,5.232544115397376,0.0
5069,perov_5069.cif,0.34683949842699996,0.0018374654734000001,1.98,True,-0.001995248165495366,HfPdO2N,5.744440701080495,5.744440701080495,0.0
5070,perov_5070.cif,0.124079015694,0.0018374654734000001,1.12,True,1.7735359621855302,LiTaON2,5.473219051975393,5.473219051975393,0.0
5071,perov_5071.cif,0.14943652262499998,0.0018374654734000001,1.7,True,-0.4943068274369234,MgLaO2N,5.417919086267307,5.417919086267307,0.0
5072,perov_5072.cif,0.317123187579,0.0018374654734000001,1.64,True,4.691131658063341e-05,HfCuO2S,5.575483642600478,5.575483642600478,0.0
5073,perov_5073.cif,0.244536529078,0.0018374654734000001,1.24,True,2.1143778249012795,TlVN3,5.971667461108291,5.971667461108291,0.0
5074,perov_5074.cif,0.316919715571,0.0018374654734000001,0.82,False,3.0226905064267853e-05,TeGeON2,6.565951622091258,6.065951622091258,0.5
5075,perov_5075.cif,0.018807548085,0.0018374654734000001,1.92,True,0.0,GaCaO2S,4.775189371546563,4.775189371546563,0.0
5076,perov_5076.cif,0.26927790870900004,0.0018374654734000001,0.7,True,-0.002220951751390002,TiAlO2N,5.3937361532973584,5.3937361532973584,0.0
5077,perov_5077.cif,0.121439834395,0.0018374654734000001,2.02,True,3.9999940276603976,NaSnN3,5.42729351769148,5.42729351769148,0.0
5078,perov_5078.cif,0.240828077581,0.0018374654734000001,0.82,True,0.004074669338738347,TeTiO2S,5.820420414995057,5.820420414995057,0.0
5079,perov_5079.cif,0.0970291770747,0.0018374654734000001,1.84,True,0.9111991141703584,CuAgO3,6.106736521735576,6.106736521735576,0.0
5080,perov_5080.cif,0.321003526032,0.0018374654734000001,2.18,True,-1.0898238244316132,ReLiO2N,5.487405399873352,5.487405399873352,0.0
5081,perov_5081.cif,0.275451653407,0.0018374654734000001,0.86,True,-0.00776625064501153,WZrO2N,5.806784176161988,5.806784176161988,0.0
5082,perov_5082.cif,0.15425448092900002,0.0018374654734000001,2.1,True,1.0011465894084868,BeCuON2,6.141402739629282,6.141402739629282,0.0
5083,perov_5083.cif,0.217421922038,0.0036749309468000002,0.46,True,2.7927224779355054e-15,AuTaOFN,6.6980434009760526,6.6980434009760526,0.0
5084,perov_5084.cif,0.200957132055,0.0018374654734000001,1.78,True,0.757179169667486,MgAlN3,5.407890714138932,5.407890714138932,0.0
5085,perov_5085.cif,0.20228659057,0.0036749309468000002,1.14,True,0.972369591883668,ScLiO2F,5.68421804336061,5.68421804336061,0.0
5086,perov_5086.cif,0.138579696971,0.0036749309468000002,0.72,True,0.96128031071434,CuGaO2F,6.1023025336888965,6.1023025336888965,0.0
5087,perov_5087.cif,0.149860348206,0.0018374654734000001,2.12,True,0.3844393812268371,BeLiN3,5.632136368405168,5.632136368405168,0.0
5088,perov_5088.cif,0.20050524825100002,0.0018374654734000001,3.06,True,0.0,OsYN3,5.695614079878131,5.695614079878131,0.0
5089,perov_5089.cif,0.19654278526299998,0.0018374654734000001,0.62,False,-4.6703269959544644e-05,SrSnO2S,5.520221660075749,4.420221660075749,1.1
5090,perov_5090.cif,0.0847547649618,0.0018374654734000001,2.1,True,3.450289725038841e-07,LiScON2,5.253338094792852,5.253338094792852,0.0
5091,perov_5091.cif,0.134195116787,0.0018374654734000001,1.96,True,-0.9638686498159054,NaBiON2,5.416392099708312,5.416392099708312,0.0
5092,perov_5092.cif,0.139369150605,0.0018374654734000001,1.74,True,0.0018096277326124504,TlYON2,5.870098180117508,5.870098180117508,0.0
5093,perov_5093.cif,0.113230023815,0.0036749309468000002,1.34,True,0.9541624680266738,AlLaO2F,5.6430062522715945,5.6430062522715945,0.0
5094,perov_5094.cif,0.280102234785,0.0018374654734000001,1.02,True,1.0627139635978406,SnVN3,5.686890129557276,5.686890129557276,0.0
5095,perov_5095.cif,0.145730230286,0.0018374654734000001,1.24,True,2.135811211156689,KRuO2S,5.210526912372694,5.210526912372694,0.0
5096,perov_5096.cif,0.200839501742,0.0018374654734000001,4.36,True,0.08798306928947493,TiRbN3,4.9926099395652015,4.9926099395652015,0.0
5097,perov_5097.cif,0.21543907889699998,0.0018374654734000001,2.5,True,3.6050397957878886,InTlN3,5.795720777884196,5.795720777884196,0.0
5098,perov_5098.cif,0.23222520205299998,0.0036749309468000002,1.34,True,7.999546728264704,WMnO2F,6.266243392220142,6.266243392220142,0.0
5099,perov_5099.cif,0.214520751926,0.0036749309468000002,1.46,True,4.0871604077277736e-15,TePdO2F,6.7888249022065,6.7888249022065,0.0
5100,perov_5100.cif,0.318173694477,0.0018374654734000001,1.48,True,6.153827838785242,IrMnO3,6.105114663818326,6.105114663818326,0.0
5101,perov_5101.cif,-0.0911246499144,0.0036749309468000002,3.74,True,0.0,BKO2F,5.720877758327124,5.720877758327124,0.0
5102,perov_5102.cif,0.203646483337,0.0018374654734000001,1.38,True,1.6515958406546465,OsSnO2S,5.943353065858345,5.943353065858345,0.0
5103,perov_5103.cif,0.234576068262,0.0018374654734000001,2.5,True,-0.00035454741161089487,IrKN3,5.485193732678976,5.485193732678976,0.0
5104,perov_5104.cif,0.27278055805199997,0.0036749309468000002,0.34,True,-1.9321231728877146e-15,InAlO2F,5.672591131173737,5.672591131173737,0.0
5105,perov_5105.cif,0.32006916553000003,0.0018374654734000001,1.0,True,2.493862187199046,TeFeON2,6.160166280738875,6.160166280738875,0.0
5106,perov_5106.cif,0.0148513143276,0.0018374654734000001,1.98,True,0.0,GaBaO2S,4.967444481030574,4.967444481030574,0.0
5107,perov_5107.cif,0.364469574787,0.0018374654734000001,1.2,True,3.9999992258544315,RuSiO3,6.197847399218931,6.197847399218931,0.0
5108,perov_5108.cif,0.163719671634,0.0036749309468000002,1.22,True,1.2811940710036804,InMgOFN,5.8107824425485575,5.8107824425485575,0.0
5109,perov_5109.cif,0.19529574113499998,0.0018374654734000001,1.32,True,-0.2171119341865265,PbLaO2N,5.457781960263143,5.457781960263143,0.0
5110,perov_5110.cif,0.188248665738,0.0018374654734000001,0.94,True,3.1320867798930467,FeNbN3,5.741665022496733,5.741665022496733,0.0
5111,perov_5111.cif,0.42211548064300003,0.0018374654734000001,0.78,True,-8.576237317146901e-05,LaIrO3,5.855805263713872,5.855805263713872,0.0
5112,perov_5112.cif,0.201286375738,0.0036749309468000002,1.8,True,3.6446078482894785e-15,MgPtOFN,6.533310756869054,6.533310756869054,0.0
5113,perov_5113.cif,0.22523568210900002,0.0036749309468000002,0.62,True,3.991067493616584,CrTiOFN,5.926911334265176,5.926911334265176,0.0
5114,perov_5114.cif,0.240088891507,0.0036749309468000002,0.72,True,2.003137283860685,GeCrOFN,6.2779257890361,6.2779257890361,0.0
5115,perov_5115.cif,0.19303921327999998,0.0018374654734000001,2.74,True,2.209309029215196,AlLaN3,5.178727287209876,5.178727287209876,0.0
5116,perov_5116.cif,0.189796902736,0.0036749309468000002,0.16,False,-9.276302747487023e-17,NaHfO2F,8.595832432221611,2.6958324322216134,5.9
5117,perov_5117.cif,0.288217229778,0.0018374654734000001,1.54,True,2.231856142479605,CoOsON2,6.0887511208121845,6.0887511208121845,0.0
5118,perov_5118.cif,0.265136267053,0.0018374654734000001,0.8,True,2.369378591323596,VReO2S,5.512713749446684,5.512713749446684,0.0
5119,perov_5119.cif,0.24191033154599997,0.0018374654734000001,1.46,True,-0.3131982320654956,CuMnON2,5.8121518242958965,5.8121518242958965,0.0
5120,perov_5120.cif,0.403191675456,0.0018374654734000001,1.44,True,-0.011939959338921238,MoBN3,5.775971296538731,5.775971296538731,0.0
5121,perov_5121.cif,0.270764159358,0.0018374654734000001,0.92,True,-0.11003128161000067,TaScO2N,5.627699990130401,5.627699990130401,0.0
5122,perov_5122.cif,0.23586367436,0.0036749309468000002,0.74,True,2.96363542565527,CdMnOFN,6.2308221704403985,6.2308221704403985,0.0
5123,perov_5123.cif,0.173146743589,0.0018374654734000001,1.84,True,-0.00012015855755365125,TeHgO2S,6.323021185131025,6.323021185131025,0.0
5124,perov_5124.cif,0.298162189806,0.0018374654734000001,1.06,True,-0.0013075359157680793,AuReON2,6.206357620640129,6.206357620640129,0.0
5125,perov_5125.cif,0.022396592275299998,0.0018374654734000001,2.22,True,0.0,CsKO2N,4.654540020767637,4.654540020767637,0.0
5126,perov_5126.cif,0.246332355427,0.0018374654734000001,1.48,True,-0.5631499221150132,CsVON2,5.004055095514051,5.004055095514051,0.0
5127,perov_5127.cif,0.33756789846600005,0.0018374654734000001,1.82,True,0.030618392305926893,OsBeN3,6.206140943718977,6.206140943718977,0.0
5128,perov_5128.cif,0.301328009445,0.0018374654734000001,1.22,True,0.0001661744524863451,TaRuN3,5.890062736850811,5.890062736850811,0.0
5129,perov_5129.cif,0.353654572484,0.0018374654734000001,0.62,True,0.008385161163309006,LaAlON2,5.215250275073224,5.215250275073224,0.0
5130,perov_5130.cif,0.063977346335,0.0036749309468000002,3.64,True,1.0400987680408809,SiCsOFN,5.6854682268342325,5.6854682268342325,0.0
5131,perov_5131.cif,0.15495772581800002,0.0018374654734000001,1.32,True,0.9129516874377755,CuRhO3,6.067730449808542,6.067730449808542,0.0
5132,perov_5132.cif,0.301866686561,0.0018374654734000001,0.82,True,1.932008022009768e-05,SbAsO2N,6.38305217397042,6.38305217397042,0.0
5133,perov_5133.cif,0.117534478825,0.0018374654734000001,3.42,True,4.0012784487629505,TlRbON2,5.5173482863399625,5.5173482863399625,0.0
5134,perov_5134.cif,0.24229202895,0.0018374654734000001,2.02,True,0.0,CsTeON2,5.444726278375331,5.444726278375331,0.0
5135,perov_5135.cif,0.080880815227,0.0018374654734000001,2.8,True,1.3331557452813212,SbRbO2S,5.253728026770092,5.253728026770092,0.0
5136,perov_5136.cif,0.286364920082,0.0018374654734000001,2.28,True,0.005443509484958753,SiTeN3,6.3147550072404455,6.3147550072404455,0.0
5137,perov_5137.cif,0.25941097765,0.0018374654734000001,-0.16,False,-5.436185352659023e-05,SrHfO3,8.38485176404817,1.4748517640481698,6.9
5138,perov_5138.cif,0.26426383353300004,0.0018374654734000001,1.12,True,-1.2240673098101296,TiAsO3,6.004764487770236,6.004764487770236,0.0
5139,perov_5139.cif,0.193770731598,0.0036749309468000002,1.62,True,-2.1768959292932182e-12,AsPdOFN,6.693961333927187,6.693961333927187,0.0
5140,perov_5140.cif,0.290450943209,0.0018374654734000001,1.92,True,0.0,YAuN3,5.887269891842442,5.887269891842442,0.0
5141,perov_5141.cif,0.248784999278,0.0018374654734000001,1.0,True,0.9848668474960791,IrZrO3,6.0786272668717185,6.0786272668717185,0.0
5142,perov_5142.cif,0.124557876626,0.0036749309468000002,1.98,True,2.9656978931902955,CrHgOFN,6.438707731902512,6.438707731902512,0.0
5143,perov_5143.cif,0.133446951937,0.0036749309468000002,2.74,True,-0.4310811210508094,CaCsOFN,4.872247960064195,4.872247960064195,0.0
5144,perov_5144.cif,0.256529534244,0.0036749309468000002,0.54,True,0.5296925028598415,CdWO2F,6.489024545385302,6.489024545385302,0.0
5145,perov_5145.cif,0.204164350107,0.0018374654734000001,0.82,True,-3.0494199284196106e-06,SbSbO2S,6.078168882980496,6.078168882980496,0.0
5146,perov_5146.cif,0.28213099016800003,0.0018374654734000001,0.18,True,0.6060526649286331,GeTaO3,6.042064030818938,6.042064030818938,0.0
5147,perov_5147.cif,0.27984498634599997,0.0018374654734000001,1.36,True,-0.22115850963588168,TlSbON2,6.3831577309901855,6.3831577309901855,0.0
5148,perov_5148.cif,0.29980757157,0.0036749309468000002,1.08,True,0.7501323911005998,BiBeOFN,6.4858007663496915,6.4858007663496915,0.0
5149,perov_5149.cif,0.262453261245,0.0018374654734000001,1.12,True,0.6987916309801978,WGaON2,5.619443261039701,5.619443261039701,0.0
5150,perov_5150.cif,0.274665158122,0.0018374654734000001,1.24,True,-0.6714198123116829,TiOsO2S,5.687241342385143,5.687241342385143,0.0
5151,perov_5151.cif,0.08492245593499999,0.0036749309468000002,1.12,True,0.0,CsCdO2F,5.643879134112067,5.643879134112067,0.0
5152,perov_5152.cif,0.054121237670900005,0.0018374654734000001,2.76,True,-3.353099672938538,CrKO2N,5.174835321561059,5.174835321561059,0.0
5153,perov_5153.cif,0.20992367194000003,0.0018374654734000001,0.42,True,2.7399944828176768,CrVON2,5.5634200036447465,5.5634200036447465,0.0
5154,perov_5154.cif,0.165309640262,0.0036749309468000002,1.6,True,0.982996802794883,SiScOFN,6.186239180006125,6.186239180006125,0.0
5155,perov_5155.cif,0.27353712773600003,0.0018374654734000001,0.58,True,0.7962599465083001,TiMoON2,5.568644582217662,5.568644582217662,0.0
5156,perov_5156.cif,0.235298941593,0.0018374654734000001,1.4,True,0.9474397095838788,InZnO2N,5.635977019432822,5.635977019432822,0.0
5157,perov_5157.cif,0.21638905602800002,0.0018374654734000001,1.86,True,-0.00923507380838336,AgNiON2,5.999843037410019,5.999843037410019,0.0
5158,perov_5158.cif,0.262659306948,0.0018374654734000001,1.58,True,2.2566523363285573,MnNiON2,5.7912442613007045,5.7912442613007045,0.0
5159,perov_5159.cif,0.199629562544,0.0018374654734000001,1.0,True,-0.2009798236771129,SrLaO2N,4.777847242708282,4.777847242708282,0.0
5160,perov_5160.cif,0.207367496591,0.0018374654734000001,2.02,True,2.6259429086369788,TaPbO2S,5.623707952333452,5.623707952333452,0.0
5161,perov_5161.cif,0.154384722413,0.0018374654734000001,1.16,True,-0.00031208959384705973,MgTlO2S,5.918297465079537,5.918297465079537,0.0
5162,perov_5162.cif,0.25220040998000004,0.0018374654734000001,1.98,True,-0.1878189613164406,TaCsO2N,5.17214232315053,5.17214232315053,0.0
5163,perov_5163.cif,0.24658858099199998,0.0018374654734000001,1.7,True,1.9946143207727127,CrCuN3,5.77144866733461,5.77144866733461,0.0
5164,perov_5164.cif,0.09781261778230001,0.0018374654734000001,2.38,True,0.0006470086808274696,KMgON2,5.146856814202179,5.146856814202179,0.0
5165,perov_5165.cif,0.0745057898515,0.0018374654734000001,1.58,True,8.850549495229224e-09,HgNaO2S,5.54599073883314,5.54599073883314,0.0
5166,perov_5166.cif,0.21264164855999998,0.0036749309468000002,0.96,True,1.0317722500266842,TiZnO2F,6.186484905097529,6.186484905097529,0.0
5167,perov_5167.cif,0.249190052929,0.0018374654734000001,0.56,True,2.924311435918017,SbCrO2S,5.764119861231588,5.764119861231588,0.0
5168,perov_5168.cif,0.289264218286,0.0018374654734000001,1.14,True,-0.0437313406700568,TlCrON2,6.0533504354575465,6.0533504354575465,0.0
5169,perov_5169.cif,0.274044736396,0.0018374654734000001,1.24,True,2.4705361161461283,TlCoO2N,6.275278902715403,6.275278902715403,0.0
5170,perov_5170.cif,0.0531365721145,0.0018374654734000001,2.76,True,2.9999999961740027,BMgO3,5.852948431565576,5.852948431565576,0.0
5171,perov_5171.cif,0.255129149283,0.0018374654734000001,1.7,True,-1.033136633809078,OsLaO2N,5.713313208192072,5.713313208192072,0.0
5172,perov_5172.cif,0.24491583559799998,0.0018374654734000001,1.9,True,1.0728400070880042,SnAuN3,6.2495608393225135,6.2495608393225135,0.0
5173,perov_5173.cif,0.156232019532,0.0018374654734000001,1.7,True,3.9517975344257654,KZrN3,5.080471230972414,5.080471230972414,0.0
5174,perov_5174.cif,0.294579973202,0.0036749309468000002,1.12,True,9.875464190400862e-05,BiRuOFN,6.376272814255063,6.376272814255063,0.0
5175,perov_5175.cif,0.25182922885000003,0.0018374654734000001,1.96,True,0.0007021425456574807,LaNaN3,5.05697733438907,5.05697733438907,0.0
5176,perov_5176.cif,0.197432569563,0.0036749309468000002,1.46,True,0.3100898668210519,BeTaOFN,6.482641582791616,6.482641582791616,0.0
5177,perov_5177.cif,0.21128698838799997,0.0018374654734000001,2.3,True,-0.0005827795177082293,AuCuON2,6.345466052311973,6.345466052311973,0.0