,id,fermi level,fermi width,e_form,gap is direct,mu_b,formula,vbm,cbm,gap gllbsc
4883,perov_4883.cif,0.269945027377,0.0036749309468000002,1.4,True,2.8582403481738328,NbSnOFN,6.2843695073444215,6.2843695073444215,0.0
4884,perov_4884.cif,0.29257760773499997,0.0018374654734000001,0.42,True,2.998613274866589,YCrO2S,5.300816763953902,5.300816763953902,0.0
4885,perov_4885.cif,0.267386091099,0.0036749309468000002,0.94,False,-3.0763552383965757e-15,CdBO2F,7.5062500178430005,5.406250017843002,2.1
4886,perov_4886.cif,0.18928497003199998,0.0018374654734000001,0.68,True,0.31049153014369674,CsBiO3,5.211157185032558,5.211157185032558,0.0
4887,perov_4887.cif,0.21566718760499998,0.0036749309468000002,1.42,True,3.7790229264849375,PtCoO2F,6.761964190518298,6.761964190518298,0.0
4888,perov_4888.cif,0.24866263816,0.0036749309468000002,1.5,True,0.0,IrGaO2F,6.320426473116868,6.320426473116868,0.0
4889,perov_4889.cif,-0.046350373189199996,0.0036749309468000002,3.5,True,3.9999820763214817,BNaOFN,5.8697074159733775,5.8697074159733775,0.0
4890,perov_4890.cif,0.231429165666,0.0018374654734000001,1.76,True,1.999964850424668,AgBO3,6.05403654426017,6.05403654426017,0.0
4891,perov_4891.cif,0.025480723758200003,0.0036749309468000002,2.38,True,0.0,GeRbO2F,5.762393000013673,5.762393000013673,0.0
4892,perov_4892.cif,0.250035881369,0.0036749309468000002,1.56,True,3.761884475330723,CrIrOFN,6.4680424673029995,6.4680424673029995,0.0
4893,perov_4893.cif,0.24174934425,0.0036749309468000002,1.0,True,1.1807846198437317e-12,MgMoOFN,6.083803778488059,6.083803778488059,0.0
4894,perov_4894.cif,0.200025598246,0.0018374654734000001,1.18,True,-3.9842385434813385,CrBiO3,5.793672446040274,5.793672446040274,0.0
4895,perov_4895.cif,0.258429470525,0.0018374654734000001,0.98,True,-4.550893537473018,MnTeO3,6.139034055601607,6.139034055601607,0.0
4896,perov_4896.cif,0.32398093821999996,0.0018374654734000001,0.64,True,0.7730768875836951,LaRuO2S,5.446530735596801,5.446530735596801,0.0
4897,perov_4897.cif,0.197638635601,0.0018374654734000001,4.34,True,0.0,TiKN3,5.0262899585461795,5.0262899585461795,0.0
4898,perov_4898.cif,0.195959871666,0.0036749309468000002,1.12,True,-4.160038329006569e-07,BeTaO2F,6.528360429666502,6.528360429666502,0.0
4899,perov_4899.cif,0.280049831007,0.0036749309468000002,1.08,True,0.9865224596973976,BiRuO2F,6.421241495109062,6.421241495109062,0.0
4900,perov_4900.cif,0.189152301164,0.0018374654734000001,1.74,True,0.0,RbSbON2,5.3822551103682335,5.3822551103682335,0.0
4901,perov_4901.cif,0.289326429912,0.0018374654734000001,0.96,True,-0.32902909538638203,TiCoO3,5.75883314870172,5.75883314870172,0.0
4902,perov_4902.cif,0.273774984082,0.0018374654734000001,1.56,True,2.3893331888239704,InAlN3,5.205878066920186,5.205878066920186,0.0
4903,perov_4903.cif,0.223041399841,0.0036749309468000002,1.58,True,0.5878789042661409,TiZnOFN,6.143160251209753,6.143160251209753,0.0
4904,perov_4904.cif,0.0410698984465,0.0018374654734000001,2.12,True,5.999999999027268,CoLiO3,5.6038174073068845,5.6038174073068845,0.0
4905,perov_4905.cif,0.335155999566,0.0018374654734000001,0.04,True,-0.0006687694751833174,BaSbO3,5.608571906357299,5.608571906357299,0.0
4906,perov_4906.cif,0.255875391123,0.0018374654734000001,1.3,True,-0.0008214801950946324,ZrPbO3,5.705414252971747,5.705414252971747,0.0
4907,perov_4907.cif,0.15010707523,0.0018374654734000001,0.92,True,0.9355186584094994,CsZrO2S,4.895365999066847,4.895365999066847,0.0
4908,perov_4908.cif,0.349356687791,0.0018374654734000001,1.02,True,-0.0013609090984668028,ZrSnO2N,5.780146427861445,5.780146427861445,0.0
4909,perov_4909.cif,0.232933704928,0.0018374654734000001,2.12,True,1.205914884814387,CaZnN3,5.188922507275011,5.188922507275011,0.0
4910,perov_4910.cif,0.22495360921500002,0.0018374654734000001,0.64,True,1.481804613793127,SrNiO3,5.1876840756189,5.1876840756189,0.0
4911,perov_4911.cif,0.265805804985,0.0036749309468000002,0.26,False,-3.5763694350182884e-15,CaScO2F,8.238779275367524,2.4387792753675237,5.8
4912,perov_4912.cif,0.240653087842,0.0018374654734000001,1.6,True,-1.8430599327581239,CoRuO2N,6.030607542188793,6.030607542188793,0.0
4913,perov_4913.cif,0.22885295965500002,0.0018374654734000001,2.0,True,2.8178184483718027,CoRhON2,5.9341721608429685,5.9341721608429685,0.0
4914,perov_4914.cif,0.00698347230733,0.0018374654734000001,1.9,True,0.0,NaCaO2N,4.813692908376822,4.813692908376822,0.0
4915,perov_4915.cif,0.21116346354200002,0.0018374654734000001,2.4,True,-0.0011663753859393645,PbLiON2,5.415966619392692,5.415966619392692,0.0
4916,perov_4916.cif,0.23338054611099998,0.0018374654734000001,1.32,True,2.053851535950951,RuCoO2S,5.845373431712848,5.845373431712848,0.0
4917,perov_4917.cif,0.368480487196,0.0018374654734000001,1.96,True,-0.00027329089588058736,PtBN3,6.202733812105548,6.202733812105548,0.0
4918,perov_4918.cif,0.09320414396130001,0.0018374654734000001,3.64,True,7.330882927091345,HgKN3,5.460316544939103,5.460316544939103,0.0
4919,perov_4919.cif,0.0396237436111,0.0018374654734000001,3.86,True,0.0,RbRbON2,4.65220777259849,4.65220777259849,0.0
4920,perov_4920.cif,0.11610889070599999,0.0018374654734000001,2.22,True,0.35062901447026823,PdYON2,5.6286325570292695,5.6286325570292695,0.0
4921,perov_4921.cif,0.21395474207499998,0.0018374654734000001,1.46,True,0.9640319088444648,TiRhO2S,5.542855764069278,5.542855764069278,0.0
4922,perov_4922.cif,0.27900062038600004,0.0018374654734000001,1.56,True,-0.06825533234144697,ReLaON2,5.452592259413851,5.452592259413851,0.0
4923,perov_4923.cif,0.17832042143,0.0036749309468000002,1.12,False,-3.590743731573753e-15,SiScO2F,7.379867648152951,5.079867648152952,2.3
4924,perov_4924.cif,0.17045720399300002,0.0018374654734000001,1.9,True,-0.00019119679558440533,KAlON2,4.9892680739734265,4.9892680739734265,0.0
4925,perov_4925.cif,0.08573147741750001,0.0018374654734000001,1.82,True,1.9936192847613647,NaBaO2N,5.007498218515269,5.007498218515269,0.0
4926,perov_4926.cif,0.30797312449,0.0018374654734000001,1.28,True,1.6843736651668628,IrMnON2,6.019904462823721,6.019904462823721,0.0
4927,perov_4927.cif,0.153049488954,0.0018374654734000001,2.88,True,0.0,MgTlN3,6.020622107079892,6.020622107079892,0.0
4928,perov_4928.cif,0.175622753622,0.0018374654734000001,1.52,True,0.7880116378868038,CuPtO3,6.390040747695685,6.390040747695685,0.0
4929,perov_4929.cif,0.21485165791299998,0.0036749309468000002,0.96,True,2.3638706388819952,CoSnO2F,6.420894269589533,6.420894269589533,0.0
4930,perov_4930.cif,0.349694262927,0.0018374654734000001,0.46,True,-0.002744755593581912,CaReON2,5.117833706493454,5.117833706493454,0.0
4931,perov_4931.cif,0.34743197901600004,0.0018374654734000001,1.36,True,0.0024329309062949282,HfReO2S,5.45325514449803,5.45325514449803,0.0
4932,perov_4932.cif,0.211849381109,0.0018374654734000001,2.0,True,2.280983655836317,SiTiN3,5.754476966843673,5.754476966843673,0.0
4933,perov_4933.cif,0.294074452411,0.0018374654734000001,1.54,True,4.910591020892785,MnTeON2,6.0533504354575465,6.0533504354575465,0.0
4934,perov_4934.cif,0.192897880352,0.0018374654734000001,1.98,True,0.6242928711352801,SiPdO3,6.184012780401014,6.184012780401014,0.0
4935,perov_4935.cif,0.242259358601,0.0018374654734000001,0.96,True,2.06677522554746,CdRuO3,6.109423536904804,6.109423536904804,0.0
4936,perov_4936.cif,0.17788409531,0.0018374654734000001,-0.42,False,-6.450658199146581e-07,KNbO3,7.047520414930881,3.5275204149308816,3.5
4937,perov_4937.cif,0.261682244725,0.0018374654734000001,1.7,True,-0.569368242748745,AgTeON2,6.271390192584562,6.271390192584562,0.0
4938,perov_4938.cif,0.293518558921,0.0036749309468000002,0.46,True,6.930868560659601e-15,PbMoO2F,6.171787692421062,6.171787692421062,0.0
4939,perov_4939.cif,0.178953565311,0.0018374654734000001,1.62,True,2.853646194137395,BMnO2S,5.624398889661496,5.624398889661496,0.0
4940,perov_4940.cif,0.27033492819000005,0.0018374654734000001,1.44,True,4.9329205477732785e-05,YAgO3,5.7057365654474905,5.7057365654474905,0.0
4941,perov_4941.cif,0.19388204935800002,0.0036749309468000002,1.68,True,2.8913036163839543,NbTlO2F,6.645606213875738,6.645606213875738,0.0
4942,perov_4942.cif,0.24933590469099998,0.0018374654734000001,1.92,True,0.0015857826931284789,PdBeON2,6.13315552623896,6.13315552623896,0.0
4943,perov_4943.cif,0.289725975287,0.0018374654734000001,0.56,False,-0.00044375132251553445,BiSnO2N,6.712252611826767,5.132252611826766,1.6
4944,perov_4944.cif,0.16960141189599998,0.0018374654734000001,1.0,True,0.9981049544805956,AuHfO3,6.093446805005459,6.093446805005459,0.0
4945,perov_4945.cif,-0.0268184882327,0.0036749309468000002,3.12,True,0.0,CoKO2F,5.7235423508934495,5.7235423508934495,0.0
4946,perov_4946.cif,0.314926372062,0.0036749309468000002,1.86,True,-0.29790676571457136,ZrRuO2F,6.267161926911066,6.267161926911066,0.0
4947,perov_4947.cif,0.235722965231,0.0018374654734000001,1.24,True,5.345928337519012e-05,AlMoO2N,5.527627904180808,5.527627904180808,0.0
4948,perov_4948.cif,0.10569767559800002,0.0036749309468000002,1.34,True,0.0,KLaOFN,5.295664767842808,5.295664767842808,0.0
4949,perov_4949.cif,0.21694785149999998,0.0018374654734000001,0.88,True,3.0001815576948654,ZnMnO2S,5.6657402173583575,5.6657402173583575,0.0
4950,perov_4950.cif,0.060602430452800005,0.0036749309468000002,1.38,True,0.0,AgCdO2F,6.500780101725278,6.500780101725278,0.0
4951,perov_4951.cif,0.219686468373,0.0018374654734000001,1.72,True,3.153468497725449,PbZnON2,5.8564532665723315,5.8564532665723315,0.0
4952,perov_4952.cif,0.118377124497,0.0036749309468000002,1.16,True,4.935818779872074,MnCdO2F,6.274765060244949,6.274765060244949,0.0
4953,perov_4953.cif,0.212906525793,0.0036749309468000002,0.98,True,0.9934504037498612,PtHfO2F,6.455502463834901,6.455502463834901,0.0
4954,perov_4954.cif,0.233430119927,0.0018374654734000001,0.96,True,-0.0005400558745183295,ScMgO2N,6.343157649545294,4.713157649545295,1.6
4955,perov_4955.cif,0.28154184557399997,0.0018374654734000001,2.1,True,0.004947891521688064,OsBiN3,5.991709964926662,5.991709964926662,0.0
4956,perov_4956.cif,0.149144836793,0.0018374654734000001,1.4,True,0.9993564447668798,AsMgO3,6.105741495032605,6.105741495032605,0.0
4957,perov_4957.cif,0.19220100806200002,0.0018374654734000001,1.72,True,-0.004774419686664835,HgGaON2,5.814827770100577,5.814827770100577,0.0
4958,perov_4958.cif,0.22544297514699999,0.0036749309468000002,1.74,True,0.8970997276530854,TiLiOFN,5.681109255671568,5.681109255671568,0.0
4959,perov_4959.cif,0.21649707344500002,0.0036749309468000002,1.58,True,3.99972716512389,ReMgO2F,6.160887300801643,6.160887300801643,0.0
4960,perov_4960.cif,0.162387177619,0.0036749309468000002,2.14,True,2.9541711395673644,MoHgOFN,6.499845674290251,6.499845674290251,0.0
4961,perov_4961.cif,0.301057249047,0.0018374654734000001,1.08,True,0.003402083508394326,SiReON2,5.972044355498366,5.972044355498366,0.0
4962,perov_4962.cif,0.06814797251640001,0.0036749309468000002,2.92,True,0.0,AuCsOFN,5.908537672536316,5.908537672536316,0.0
4963,perov_4963.cif,0.312165812135,0.0036749309468000002,1.6,True,3.9604539077425622,ReAlOFN,5.930426179977776,5.930426179977776,0.0
4964,perov_4964.cif,0.113425988533,0.0036749309468000002,1.22,True,1.5373465027730011,HgYOFN,6.243789607480843,6.243789607480843,0.0
4965,perov_4965.cif,0.28137502367199996,0.0018374654734000001,1.22,True,0.007998212453317777,GeCoN3,5.9726340240952185,5.9726340240952185,0.0
4966,perov_4966.cif,0.18190362322,0.0018374654734000001,0.94,True,4.160412670305062e-06,PdMgO2S,5.6748491715114096,5.6748491715114096,0.0
4967,perov_4967.cif,0.058301822182300005,0.0036749309468000002,1.88,True,0.0,RbBaOFN,5.136013464491751,5.136013464491751,0.0
4968,perov_4968.cif,0.163970561208,0.0018374654734000001,0.56,True,0.00017381122611226374,AgVO2S,5.6261740283093165,5.6261740283093165,0.0
4969,perov_4969.cif,0.201014870023,0.0018374654734000001,0.98,True,0.9956431030394732,HgZrO2N,6.008682411054381,6.008682411054381,0.0
4970,perov_4970.cif,0.12360250634299999,0.0036749309468000002,1.86,True,1.0016997666139211,BeScOFN,6.222208111600453,6.222208111600453,0.0
4971,perov_4971.cif,0.284455809344,0.0018374654734000001,1.8,True,0.0007012544495417218,SiCuN3,6.063140607279253,6.063140607279253,0.0
4972,perov_4972.cif,0.29378658079799996,0.0018374654734000001,0.9,True,1.9886693134907305e-05,YRhO3,5.9642918342761995,5.3742918342762,0.6
4973,perov_4973.cif,0.268668806778,0.0018374654734000001,0.84,True,1.3722115742130148,NbMoO2S,5.5988777782954315,5.5988777782954315,0.0
4974,perov_4974.cif,0.206616152129,0.0018374654734000001,1.26,True,3.859631859814972,RuHfO2S,5.5804528872497645,5.5804528872497645,0.0
4975,perov_4975.cif,0.279888307454,0.0018374654734000001,1.54,True,0.8498947910627204,ScPtON2,5.941458828032078,5.941458828032078,0.0
4976,perov_4976.cif,0.138911756888,0.0018374654734000001,1.18,True,0.998899932335501,PbTlO2S,5.961841922345117,5.961841922345117,0.0
4977,perov_4977.cif,0.148300417872,0.0018374654734000001,2.2,True,0.0,IrYO3,5.920295357025678,5.920295357025678,0.0
4978,perov_4978.cif,0.107510064144,0.0018374654734000001,1.82,True,1.408195593287495,AgTlO3,6.360160109470431,6.360160109470431,0.0
4979,perov_4979.cif,0.246723173785,0.0036749309468000002,1.38,True,1.4953088357769803e-12,SrPtOFN,5.7614667713631285,5.7614667713631285,0.0
4980,perov_4980.cif,0.31718905489,0.0036749309468000002,0.7,True,4.51306137910668e-16,CaTaOFN,5.523283442621804,5.523283442621804,0.0
4981,perov_4981.cif,0.07285673509269999,0.0036749309468000002,1.6,True,2.2915444392879696,LiCuOFN,5.9858375350046025,5.9858375350046025,0.0
4982,perov_4982.cif,0.19657457372200002,0.0036749309468000002,0.58,True,-3.5725582838853387,HgMnO2F,6.484116735178028,6.484116735178028,0.0
4983,perov_4983.cif,0.225819830898,0.0018374654734000001,2.7,True,4.457029209589549,PbLiN3,5.3780379922558845,5.3780379922558845,0.0
4984,perov_4984.cif,0.24414675074099998,0.0036749309468000002,1.22,True,0.012031003849306995,SiTaOFN,6.445167154508312,6.445167154508312,0.0
4985,perov_4985.cif,0.166007185335,0.0018374654734000001,1.92,True,-1.2843009965548762,NaSbN3,5.559528568187259,5.559528568187259,0.0
4986,perov_4986.cif,0.143495035792,0.0018374654734000001,1.46,True,2.0347416175233413,CdYO2N,5.663224191694452,5.663224191694452,0.0
4987,perov_4987.cif,0.254668205315,0.0036749309468000002,1.74,True,0.9040494589991076,HfYOFN,5.734097004928823,5.734097004928823,0.0
4988,perov_4988.cif,0.24785501559099998,0.0036749309468000002,2.26,True,4.054711231632926,OsPtOFN,6.889517921198741,6.889517921198741,0.0
4989,perov_4989.cif,0.172745182199,0.0018374654734000001,2.0,True,1.3902793687682298,OsKO3,5.504296636095137,5.504296636095137,0.0
4990,perov_4990.cif,0.160557932449,0.0018374654734000001,1.26,True,0.16120349218737218,SnCdO2S,5.827073602847832,5.827073602847832,0.0
4991,perov_4991.cif,0.27286968199,0.0036749309468000002,0.86,True,3.6855964490875017,MoTiOFN,5.9831895780960185,5.9831895780960185,0.0
4992,perov_4992.cif,0.038053016855199996,0.0036749309468000002,1.92,True,0.0,RbCaOFN,4.9372342260527615,4.9372342260527615,0.0
4993,perov_4993.cif,0.164072128835,0.0036749309468000002,1.12,True,0.9213465647137652,GeInOFN,6.0531289864733875,6.0531289864733875,0.0
4994,perov_4994.cif,0.21477615809599998,0.0018374654734000001,1.56,True,0.05607691865212062,PtBiON2,6.193158044367267,6.193158044367267,0.0
4995,perov_4995.cif,0.19718813846799998,0.0018374654734000001,0.86,False,-5.75491008714585e-05,MgSnO2S,6.386065245953642,4.886065245953642,1.5
4996,perov_4996.cif,0.2176659068,0.0018374654734000001,2.1,True,0.8914386103695763,CuAuN3,6.301028035459055,6.301028035459055,0.0
4997,perov_4997.cif,0.220649230837,0.0036749309468000002,1.28,True,0.2543700260971383,RhMnOFN,6.193816039957674,6.193816039957674,0.0
4998,perov_4998.cif,0.201777708894,0.0018374654734000001,1.12,True,0.0026216321537262392,GeBiO2N,6.002674629198017,6.002674629198017,0.0
4999,perov_4999.cif,0.191171636406,0.0018374654734000001,0.98,True,0.16015829251158564,TeYO2S,5.72992150991994,5.72992150991994,0.0
5000,perov_5000.cif,0.198641239412,0.0018374654734000001,1.22,True,1.1888684745095617,LiIrO2N,5.810940427603532,5.810940427603532,0.0
5001,perov_5001.cif,0.24844748544,0.0036749309468000002,1.42,True,4.0769593244198275e-15,ScZnOFN,6.103477091791429,6.103477091791429,0.0
5002,perov_5002.cif,0.237345868304,0.0018374654734000001,1.86,True,-0.0005363825019193387,SrZnON2,5.126851767891702,5.126851767891702,0.0
5003,perov_5003.cif,0.243846744893,0.0018374654734000001,0.9,True,0.02084602973862815,SnRhO3,6.018168843129987,6.018168843129987,0.0
5004,perov_5004.cif,0.270342025033,0.0018374654734000001,1.84,True,-2.055980698530873,MoBiN3,5.726667029554126,5.726667029554126,0.0
5005,perov_5005.cif,0.25615711834399996,0.0036749309468000002,1.64,True,3.3772438810324434,MoIrO2F,6.575507980503468,6.575507980503468,0.0
5006,perov_5006.cif,0.158412581055,0.0018374654734000001,2.48,True,0.0,RbBiN3,5.170495712932967,5.170495712932967,0.0
5007,perov_5007.cif,0.18837346305799998,0.0018374654734000001,1.88,True,-0.02066560028679375,InLaON2,5.17900686795079,5.17900686795079,0.0
5008,perov_5008.cif,0.17816214380999998,0.0018374654734000001,0.82,True,-0.2064593181117688,BiLaO2S,5.348670204225524,5.348670204225524,0.0
5009,perov_5009.cif,0.262314107078,0.0036749309468000002,1.66,True,2.6292451388574447,OsMoO2F,6.460748413549014,6.460748413549014,0.0
5010,perov_5010.cif,0.156121724688,0.0018374654734000001,2.52,True,1.9822841902664832,TiBaO3,5.239233611035356,5.239233611035356,0.0
5011,perov_5011.cif,0.205875075517,0.0018374654734000001,0.76,True,4.000017853633433,FeZrO3,5.754432089895426,5.754432089895426,0.0
5012,perov_5012.cif,0.13221505833799999,0.0018374654734000001,1.58,True,4.99993328084324,CoMgO3,5.85567453821226,5.85567453821226,0.0
5013,perov_5013.cif,0.0624365902252,0.0036749309468000002,3.92,True,0.0,BeCsOFN,5.718525503118289,5.718525503118289,0.0
5014,perov_5014.cif,0.0581710418568,0.0036749309468000002,1.14,True,0.0,TlBaO2F,6.134081813180821,6.134081813180821,0.0
5015,perov_5015.cif,0.284701221828,0.0018374654734000001,2.38,True,2.5921453625609665,CsTeN3,5.406596244092064,5.406596244092064,0.0
5016,perov_5016.cif,0.16150639062,0.0018374654734000001,0.62,True,1.999078617521604,RbHfO2N,5.051483280982966,5.051483280982966,0.0
5017,perov_5017.cif,0.192896802816,0.0018374654734000001,1.52,True,1.6552217861232062e-05,PtAuO2S,6.469672085767182,6.469672085767182,0.0
5018,perov_5018.cif,0.22774541800999998,0.0036749309468000002,0.74,True,1.108083344760979e-15,LiReOFN,5.854613056790974,5.854613056790974,0.0
5019,perov_5019.cif,0.236741548349,0.0018374654734000001,1.76,True,0.6063562668054344,AlAlON2,5.279280924158429,5.279280924158429,0.0
5020,perov_5020.cif,0.121203603915,0.0036749309468000002,1.1,True,3.906334893153799,NaCoOFN,5.872441328391687,5.872441328391687,0.0
5021,perov_5021.cif,0.08162783660760001,0.0018374654734000001,3.6,True,1.1323396045368486,SiKO2N,5.436374120716198,5.436374120716198,0.0
5022,perov_5022.cif,0.314165677185,0.0036749309468000002,0.42,True,8.09082462547333e-14,SrMoO2F,5.402901585938981,5.402901585938981,0.0
5023,perov_5023.cif,0.230521843775,0.0018374654734000001,0.96,True,0.6433729113739588,SiVON2,5.844598069521823,5.844598069521823,0.0
5024,perov_5024.cif,0.11400314554999999,0.0018374654734000001,3.56,True,0.0,NaCsN3,4.742184443230406,4.742184443230406,0.0
5025,perov_5025.cif,0.326077048185,0.0018374654734000001,1.04,True,-2.062861876730702,TaTaO2N,5.863250041971265,5.863250041971265,0.0
5026,perov_5026.cif,0.238184722087,0.0018374654734000001,1.26,True,0.00296010112017342,ScRhO2S,5.507050409834051,5.507050409834051,0.0
5027,perov_5027.cif,0.29899122652800003,0.0036749309468000002,0.58,True,1.6143938297222429,BiVOFN,6.097964445256085,6.097964445256085,0.0
5028,perov_5028.cif,0.269877998022,0.0036749309468000002,0.52,False,-2.228907479828662e-16,SnZrOFN,6.566943806904145,5.766943806904143,0.8
5029,perov_5029.cif,0.32461191618,0.0018374654734000001,1.1,True,-0.3565326417242176,NbOsON2,6.001316476447596,6.001316476447596,0.0
5030,perov_5030.cif,0.260535576462,0.0018374654734000001,1.98,True,0.4653090760325754,OsZnON2,6.130650151413171,6.130650151413171,0.0