,id,fermi level,fermi width,e_form,gap is direct,mu_b,formula,vbm,cbm,gap gllbsc
3702,perov_3702.cif,0.33044766779,0.0018374654734000001,0.26,True,1.9993622415676136,LaVO2S,5.208803284171269,5.208803284171269,0.0
3703,perov_3703.cif,0.311880160095,0.0018374654734000001,1.32,True,0.003582524090109729,InIrN3,5.763698260668777,5.763698260668777,0.0
3704,perov_3704.cif,0.110233126872,0.0036749309468000002,1.32,True,0.0,AsLaO2F,6.238277631196662,6.238277631196662,0.0
3705,perov_3705.cif,0.175860804497,0.0018374654734000001,0.78,True,0.004421754148889789,LiMoO2S,5.289349785672852,5.289349785672852,0.0
3706,perov_3706.cif,0.26846753671100004,0.0018374654734000001,0.8,True,3.541914980762477,FeSbO3,6.094394174106723,6.094394174106723,0.0
3707,perov_3707.cif,-0.0237322163033,0.0018374654734000001,2.64,True,0.0,InKO2S,4.836280475117436,4.836280475117436,0.0
3708,perov_3708.cif,0.206753476288,0.0018374654734000001,0.76,True,-3.4237981176696755,FeZrO2N,5.714133150766036,5.714133150766036,0.0
3709,perov_3709.cif,0.235503010631,0.0036749309468000002,1.48,True,5.247117651549322e-15,ZrHgO2F,6.455985015583853,6.455985015583853,0.0
3710,perov_3710.cif,0.282028533029,0.0036749309468000002,0.6,True,8.737592009894073e-16,SbGaO2F,6.199925626176492,6.199925626176492,0.0
3711,perov_3711.cif,0.174021687031,0.0036749309468000002,1.26,True,1.0379247575501878e-14,SnAuO2F,6.8098412861683935,6.8098412861683935,0.0
3712,perov_3712.cif,0.176238590553,0.0018374654734000001,2.7,True,2.783874698670459,AsCdN3,6.180969003432929,6.180969003432929,0.0
3713,perov_3713.cif,0.381076831919,0.0018374654734000001,0.6,True,0.001001099560507868,YWO2N,5.655533048512463,5.655533048512463,0.0
3714,perov_3714.cif,0.267948870974,0.0018374654734000001,3.48,True,1.5905313397247625,OsHgN3,6.285162619950646,6.285162619950646,0.0
3715,perov_3715.cif,0.0662215440321,0.0036749309468000002,1.06,True,0.0,CuYO2F,6.098483818222965,6.098483818222965,0.0
3716,perov_3716.cif,0.21114040225699998,0.0018374654734000001,2.02,True,0.0,NbYO2N,5.548748077086722,5.548748077086722,0.0
3717,perov_3717.cif,0.231773166259,0.0018374654734000001,2.54,True,4.610916161690184,BiLiN3,5.437538062449646,5.437538062449646,0.0
3718,perov_3718.cif,0.176914375873,0.0018374654734000001,1.08,True,0.6979195324272816,BaTlO2S,5.533724008145564,5.533724008145564,0.0
3719,perov_3719.cif,0.156611620746,0.0018374654734000001,2.18,True,4.999998305330373,CsYN3,4.850288884802262,4.850288884802262,0.0
3720,perov_3720.cif,0.177445846487,0.0018374654734000001,2.08,True,-1.0699717701335585,RhAuO2N,6.338021767321511,6.338021767321511,0.0
3721,perov_3721.cif,0.136066290264,0.0018374654734000001,1.94,True,0.17902188470808694,NaNiON2,5.490757543245643,5.490757543245643,0.0
3722,perov_3722.cif,0.290473779602,0.0018374654734000001,1.22,True,-0.0007244566500560662,GeTeO2N,6.360494887578293,6.360494887578293,0.0
3723,perov_3723.cif,0.205846108601,0.0036749309468000002,0.64,True,7.597841086940692,FeMnO2F,6.166261395635322,6.166261395635322,0.0
3724,perov_3724.cif,0.152499314539,0.0018374654734000001,2.04,True,3.9999973284432637,KSnN3,5.252637269388353,5.252637269388353,0.0
3725,perov_3725.cif,-0.0299123693211,0.0036749309468000002,2.88,True,0.0,NiKO2F,5.7499192398587,5.7499192398587,0.0
3726,perov_3726.cif,0.23450767044799997,0.0018374654734000001,1.1,True,0.0010886828396010626,TeAsO3,6.589411485166663,6.589411485166663,0.0
3727,perov_3727.cif,0.167579812238,0.0018374654734000001,0.74,True,0.0006996473594398367,CuSbO2S,5.9824629537814085,5.9824629537814085,0.0
3728,perov_3728.cif,0.240096991366,0.0018374654734000001,1.54,True,-0.0006359720166144128,BaZnON2,5.435903277198263,5.435903277198263,0.0
3729,perov_3729.cif,0.0479917248276,0.0036749309468000002,1.34,True,-0.39721188311288935,LiTlO2F,6.278210954933803,6.278210954933803,0.0
3730,perov_3730.cif,0.179578552048,0.0018374654734000001,2.04,True,0.00673116243066474,WNaN3,5.4523051468053305,5.4523051468053305,0.0
3731,perov_3731.cif,0.25353161131900004,0.0036749309468000002,1.74,True,-0.4034881769885947,HfPtO2F,6.455502463834901,6.455502463834901,0.0
3732,perov_3732.cif,0.248430644973,0.0018374654734000001,2.46,True,0.0,VLiON2,5.332692711829324,5.332692711829324,0.0
3733,perov_3733.cif,0.225938013413,0.0036749309468000002,1.3,True,3.916815135510209,RuZrOFN,6.223272282709667,6.223272282709667,0.0
3734,perov_3734.cif,0.304288515957,0.0036749309468000002,1.22,True,0.6498583795687978,CaOsOFN,5.7214002590549775,5.7214002590549775,0.0
3735,perov_3735.cif,0.335060629085,0.0018374654734000001,1.22,True,-0.008073425747581464,ZrCuO2N,5.827747841392594,5.827747841392594,0.0
3736,perov_3736.cif,0.276830615994,0.0018374654734000001,1.92,True,0.00017764225752969775,IrCaN3,5.38162502377313,5.38162502377313,0.0
3737,perov_3737.cif,0.259654609309,0.0018374654734000001,1.42,True,-0.6521904731894308,ZrPdO2S,5.64115907213877,5.64115907213877,0.0
3738,perov_3738.cif,0.157934373344,0.0036749309468000002,1.54,True,0.0,TeLaOFN,6.238380794068793,6.238380794068793,0.0
3739,perov_3739.cif,0.126892249001,0.0018374654734000001,3.46,True,-1.4646887680999052,TiCsO2S,4.843158802772813,4.843158802772813,0.0
3740,perov_3740.cif,0.241060997586,0.0036749309468000002,1.86,True,-1.1365496364617458e-15,AuBOFN,6.759003080554129,6.759003080554129,0.0
3741,perov_3741.cif,0.11757428778,0.0018374654734000001,1.48,True,1.3067139601668318,RbCdO2N,5.3229059089738975,5.3229059089738975,0.0
3742,perov_3742.cif,0.216929826466,0.0018374654734000001,2.3,True,-2.677454726480958,MoTlO2N,6.153925905457507,6.153925905457507,0.0
3743,perov_3743.cif,0.27884805530400003,0.0018374654734000001,1.56,True,1.046445545567721,TlRuN3,6.244211692257137,6.244211692257137,0.0
3744,perov_3744.cif,0.296361285787,0.0018374654734000001,1.54,True,-1.0541442639155791,NbRuO3,5.985927972306888,5.985927972306888,0.0
3745,perov_3745.cif,0.20951166118500003,0.0018374654734000001,1.52,True,-0.7345633999289573,TiPbO2N,5.605038653583188,5.605038653583188,0.0
3746,perov_3746.cif,0.19128459865400002,0.0036749309468000002,1.4,True,4.8384077946735475,CsCoOFN,5.571068999845728,5.571068999845728,0.0
3747,perov_3747.cif,0.168294186179,0.0018374654734000001,1.4,True,0.00012550375424424942,AuLiO2S,5.720375384682403,5.720375384682403,0.0
3748,perov_3748.cif,0.142713483673,0.0018374654734000001,1.42,True,4.570839421575547,MnAuO2S,5.967876373769512,5.967876373769512,0.0
3749,perov_3749.cif,0.260693819163,0.0036749309468000002,1.12,True,6.702358554329209e-16,GaBO2F,6.049640820689016,6.049640820689016,0.0
3750,perov_3750.cif,0.233401438794,0.0018374654734000001,2.88,True,3.171523584619931,CoCsON2,5.185077757978039,5.185077757978039,0.0
3751,perov_3751.cif,0.0758252446965,0.0018374654734000001,3.82,True,0.0,VNaN3,5.237814561269972,5.237814561269972,0.0
3752,perov_3752.cif,0.135612275895,0.0018374654734000001,1.52,True,0.6383153329475526,AgAuO2S,6.182837382383648,6.182837382383648,0.0
3753,perov_3753.cif,0.18291225805199998,0.0018374654734000001,1.28,True,1.8024842803246224,FeGaON2,5.529781382021179,5.529781382021179,0.0
3754,perov_3754.cif,0.197468716722,0.0018374654734000001,0.9,True,4.068807803496797,CrLaO2S,5.243074684020256,5.243074684020256,0.0
3755,perov_3755.cif,0.246018241615,0.0018374654734000001,1.44,True,1.2320329864838993,CuAsO2N,6.2825455985202625,6.2825455985202625,0.0
3756,perov_3756.cif,0.199745811136,0.0018374654734000001,2.14,True,0.4159907079771834,LiTeN3,5.761670452533608,5.761670452533608,0.0
3757,perov_3757.cif,0.180558547023,0.0036749309468000002,2.2,True,-0.10416068611562357,AlPdOFN,6.055207525697981,6.055207525697981,0.0
3758,perov_3758.cif,0.350559178735,0.0036749309468000002,0.32,True,1.3218183735261009e-12,BaMoO2F,5.728593641290899,5.728593641290899,0.0
3759,perov_3759.cif,-0.039437169350199995,0.0018374654734000001,3.22,True,0.0,CuRbO2S,5.171003618771287,5.171003618771287,0.0
3760,perov_3760.cif,0.126584128261,0.0036749309468000002,0.78,True,8.339773938104145e-06,InPbO2F,5.89481792444828,5.89481792444828,0.0
3761,perov_3761.cif,0.310906692041,0.0036749309468000002,0.76,False,4.144868996340608e-16,YGaOFN,6.661664829868702,4.661664829868703,2.0
3762,perov_3762.cif,0.384399620353,0.0036749309468000002,0.74,True,2.582649907528165,ZrTiO2F,5.942815290888162,5.942815290888162,0.0
3763,perov_3763.cif,0.24254597390799998,0.0036749309468000002,1.9,True,7.825829995493508e-16,SiOsOFN,6.6763513787647275,6.6763513787647275,0.0
3764,perov_3764.cif,0.332355179913,0.0018374654734000001,1.78,True,0.0052415283672200275,PtBON2,6.246478608688798,6.246478608688798,0.0
3765,perov_3765.cif,0.211038963702,0.0018374654734000001,0.82,True,2.6834972482051818,TlMnO2S,5.9087977411848165,5.9087977411848165,0.0
3766,perov_3766.cif,0.284689879162,0.0018374654734000001,0.84,True,2.135324127418606,SbMnON2,5.905133159122016,5.905133159122016,0.0
3767,perov_3767.cif,0.17692162492,0.0018374654734000001,1.48,True,0.6848759969513267,TaKO3,5.313697538519135,5.313697538519135,0.0
3768,perov_3768.cif,0.268383495713,0.0018374654734000001,1.14,True,-1.1484509857553692e-05,LaHgO2S,5.610629057618865,5.610629057618865,0.0
3769,perov_3769.cif,0.148215636253,0.0018374654734000001,1.56,True,0.0,CsHgO3,5.466381139570856,5.466381139570856,0.0
3770,perov_3770.cif,0.389843290477,0.0018374654734000001,0.74,True,1.854372721669844,ZrMnN3,5.536681117146917,5.536681117146917,0.0
3771,perov_3771.cif,0.210555488593,0.0018374654734000001,1.06,True,-0.2910714337076025,TiZnO3,5.798461887261696,5.798461887261696,0.0
3772,perov_3772.cif,0.33869752615000004,0.0018374654734000001,1.18,True,-0.9523263330748364,TiGeO2N,5.796158566140642,5.796158566140642,0.0
3773,perov_3773.cif,0.24739745966600002,0.0036749309468000002,0.5,True,3.588360935183992,InFeO2F,5.945463015392357,5.945463015392357,0.0
3774,perov_3774.cif,0.12164905896400001,0.0018374654734000001,1.28,True,-0.799689260451197,ZnTlO3,6.363022468914747,6.363022468914747,0.0
3775,perov_3775.cif,0.308009859331,0.0018374654734000001,1.48,True,-0.014872016823539887,TeAlON2,5.877440414683801,5.877440414683801,0.0
3776,perov_3776.cif,0.227656983103,0.0018374654734000001,1.58,True,0.7822788872157602,InPdON2,5.5965076345669225,5.5965076345669225,0.0
3777,perov_3777.cif,0.18488355739999998,0.0036749309468000002,1.42,True,1.1203459623493828,AuRhOFN,6.762151197001471,6.762151197001471,0.0
3778,perov_3778.cif,0.329733419701,0.0018374654734000001,1.72,True,0.5004285996318919,AuSiN3,6.377892570459918,6.377892570459918,0.0
3779,perov_3779.cif,0.24086839159499998,0.0018374654734000001,1.9,True,0.0005499562860933337,PtAgN3,6.2455153425898295,6.2455153425898295,0.0
3780,perov_3780.cif,0.266337131397,0.0018374654734000001,1.2,True,0.2401122338879454,BiCuO2N,5.971024316684043,5.971024316684043,0.0
3781,perov_3781.cif,0.234479629693,0.0018374654734000001,1.28,True,-0.7178607856629708,CsNbON2,5.110619889561983,5.110619889561983,0.0
3782,perov_3782.cif,0.240261001245,0.0018374654734000001,0.98,True,-7.27349174312053e-06,BiPdO2S,5.779848221088166,5.779848221088166,0.0
3783,perov_3783.cif,0.176071546019,0.0018374654734000001,1.26,True,0.9835572967653868,AsBeO2S,6.199696896593957,6.199696896593957,0.0
3784,perov_3784.cif,0.17463834077999998,0.0036749309468000002,0.96,True,0.9539515325144272,SnYOFN,6.006311488455897,6.006311488455897,0.0
3785,perov_3785.cif,0.283169457372,0.0018374654734000001,1.54,True,4.415529020813661,CaCoN3,5.1534595763380135,5.1534595763380135,0.0
3786,perov_3786.cif,0.16769691698300002,0.0018374654734000001,0.54,True,0.9996503969294112,ZnVO2S,5.628706060850655,5.628706060850655,0.0
3787,perov_3787.cif,0.250040132209,0.0036749309468000002,0.88,True,3.469458274366234,VMoO2F,6.076892558474128,6.076892558474128,0.0
3788,perov_3788.cif,0.121266432618,0.0018374654734000001,2.04,True,4.999999503235649,NiLiO3,5.629642545040162,5.629642545040162,0.0
3789,perov_3789.cif,0.226818260651,0.0018374654734000001,1.2,True,1.996170256850384,RbWN3,5.241485072625156,5.241485072625156,0.0
3790,perov_3790.cif,0.0767516658967,0.0018374654734000001,1.72,True,0.0,GaYO2N,5.306559094227047,5.306559094227047,0.0
3791,perov_3791.cif,0.15325740261499998,0.0036749309468000002,1.14,True,3.34576564759745,CoCuO2F,6.473772453071747,6.473772453071747,0.0
3792,perov_3792.cif,0.154131716532,0.0018374654734000001,1.8,True,-0.07157072062415683,PdScO2N,5.720660413697321,5.720660413697321,0.0
3793,perov_3793.cif,0.188983146116,0.0036749309468000002,0.88,True,2.276120099723617,GaMnOFN,5.838410229556726,5.838410229556726,0.0
3794,perov_3794.cif,0.151725554152,0.0018374654734000001,1.38,True,-1.9454464815002803,CrHgO3,6.077425927363968,6.077425927363968,0.0
3795,perov_3795.cif,0.316447065009,0.0018374654734000001,1.06,True,1.1722247878305263,AsReO3,6.188152874891091,6.188152874891091,0.0
3796,perov_3796.cif,0.222432667152,0.0036749309468000002,0.52,True,3.176132989480703e-15,InGeO2F,6.095818694628953,6.095818694628953,0.0
3797,perov_3797.cif,0.190037478306,0.0018374654734000001,1.3,True,0.026295493208529308,AuZnO2S,6.185619938588135,6.185619938588135,0.0
3798,perov_3798.cif,0.309633118854,0.0036749309468000002,0.56,True,0.6829456283504668,BiTiO2F,6.088920724987233,6.088920724987233,0.0
3799,perov_3799.cif,0.30135486017499996,0.0018374654734000001,0.92,True,2.1930569225595486,TiFeO2N,5.653194117584626,5.653194117584626,0.0
3800,perov_3800.cif,0.325170135966,0.0018374654734000001,0.82,True,-0.05572358335473988,SbWN3,6.0640047042220315,6.0640047042220315,0.0
3801,perov_3801.cif,0.17751271010000003,0.0018374654734000001,1.44,True,-0.14294597439434045,VZnON2,5.766406598591868,5.766406598591868,0.0
3802,perov_3802.cif,0.21309399011,0.0018374654734000001,1.16,True,-3.3549074852914376,CoTiO2N,5.718503388459459,5.718503388459459,0.0
3803,perov_3803.cif,0.20528265543299998,0.0018374654734000001,2.18,True,4.998848347446831,BaLiON2,5.027047831764598,5.027047831764598,0.0
3804,perov_3804.cif,0.13557228133,0.0018374654734000001,1.6,True,-0.9274847813310084,PtNaO2N,5.7964872335093744,5.7964872335093744,0.0
3805,perov_3805.cif,0.25265253773699997,0.0018374654734000001,1.46,True,0.015447962629631109,AsPtO2N,6.5622245252588165,6.5622245252588165,0.0
3806,perov_3806.cif,0.219312254841,0.0018374654734000001,1.92,True,-0.0020970772068892507,AsMgON2,6.020522545240198,6.020522545240198,0.0
3807,perov_3807.cif,0.12808882065899999,0.0018374654734000001,3.54,True,0.024160965454022687,PtSrON2,5.362283829252833,5.362283829252833,0.0
3808,perov_3808.cif,0.11835293454700001,0.0036749309468000002,1.1,True,0.9967127440867962,LiSnOFN,5.936944834841732,5.936944834841732,0.0
3809,perov_3809.cif,0.186061549799,0.0018374654734000001,1.24,True,2.8619325536030984,VTlO2S,5.8701748372173945,5.8701748372173945,0.0
3810,perov_3810.cif,0.323635170503,0.0036749309468000002,0.68,True,-5.434368645663193e-15,SrWOFN,5.496073825920371,5.496073825920371,0.0
3811,perov_3811.cif,0.053553975998400005,0.0018374654734000001,1.98,True,0.0,CdBaO2S,5.3013169657293915,5.3013169657293915,0.0
3812,perov_3812.cif,0.232463039773,0.0018374654734000001,0.86,False,-2.9260966042778447e-05,ScScO2S,6.085698796363587,4.385698796363588,1.7
3813,perov_3813.cif,0.342245657065,0.0036749309468000002,1.4,True,2.7129864569673434,NbBO2F,6.3257437210831675,6.3257437210831675,0.0
3814,perov_3814.cif,0.309683275742,0.0018374654734000001,0.8,True,0.709579653945557,ZrZrN3,5.5126599023799265,5.5126599023799265,0.0
3815,perov_3815.cif,0.385951844943,0.0018374654734000001,0.54,True,-0.0010176212358463015,LaGeON2,5.604355996900856,5.604355996900856,0.0
3816,perov_3816.cif,0.18098028348200002,0.0018374654734000001,4.6,True,-1.1830126171955029,RuKN3,5.300614526942199,5.300614526942199,0.0
3817,perov_3817.cif,0.191892896286,0.0018374654734000001,4.68,True,2.4826842397886217,OsKON2,5.42747216210528,5.42747216210528,0.0
3818,perov_3818.cif,0.29377168570900003,0.0018374654734000001,1.6,True,-3.9934359097255214,OsVO2N,5.91762096924244,5.91762096924244,0.0
3819,perov_3819.cif,0.044699947769800005,0.0036749309468000002,2.18,True,0.0,TlNaOFN,6.166510342051264,6.166510342051264,0.0
3820,perov_3820.cif,0.277506881825,0.0018374654734000001,1.2,True,-0.000432553276320069,TeTaN3,6.129031970602227,6.129031970602227,0.0
3821,perov_3821.cif,0.232975773453,0.0036749309468000002,0.96,True,0.9974976292076932,CsHfOFN,5.318580317998063,5.318580317998063,0.0
3822,perov_3822.cif,0.21713578554000001,0.0036749309468000002,2.2,True,-7.398511027743256e-10,BeOsO2F,6.7625287460837145,6.7625287460837145,0.0
3823,perov_3823.cif,0.229490971434,0.0018374654734000001,1.7,True,-0.0021872216503939453,CuBO2N,6.022432400227584,6.022432400227584,0.0
3824,perov_3824.cif,0.37541806483900003,0.0018374654734000001,0.48,True,0.006600376151578047,LaTiO2S,5.164654514320217,5.164654514320217,0.0
3825,perov_3825.cif,0.150802809989,0.0018374654734000001,2.66,True,0.004210562543779175,AuTlON2,6.608796681872128,6.608796681872128,0.0
3826,perov_3826.cif,0.267924705859,0.0018374654734000001,1.64,True,0.007071225454232889,PtRhN3,6.205622837025298,6.205622837025298,0.0
3827,perov_3827.cif,0.312460549868,0.0018374654734000001,1.2,True,-0.1964344585994129,SnAsON2,6.1875913636737065,6.1875913636737065,0.0
3828,perov_3828.cif,0.164445272544,0.0018374654734000001,1.42,True,-0.6891685362542888,MgPdO2N,5.854679536611293,5.854679536611293,0.0
3829,perov_3829.cif,0.256200827141,0.0018374654734000001,1.26,True,-0.28024914664285056,HfLaO2N,5.315904093416666,5.315904093416666,0.0
3830,perov_3830.cif,0.17025076038800002,0.0018374654734000001,1.0,True,4.068628425457633e-05,MgCuO2S,5.682480103398772,5.682480103398772,0.0
3831,perov_3831.cif,0.161561978756,0.0036749309468000002,1.24,True,1.7545784583692114,BeVO2F,6.360743056851074,6.360743056851074,0.0
3832,perov_3832.cif,0.179486681118,0.0018374654734000001,1.34,True,1.2553611681768686,KIrO2S,5.391969066686578,5.391969066686578,0.0
3833,perov_3833.cif,0.0385873565276,0.0036749309468000002,1.76,True,0.0,NaCdOFN,5.907527344613134,5.907527344613134,0.0
3834,perov_3834.cif,0.170382302588,0.0018374654734000001,2.1,True,0.36497637527800464,AlAgON2,5.633137603394508,5.633137603394508,0.0
3835,perov_3835.cif,0.0605423446911,0.0018374654734000001,1.8,True,2.2422933512949896,CdCaO2S,5.09613998236343,5.09613998236343,0.0
3836,perov_3836.cif,0.13344432603,0.0018374654734000001,2.84,True,0.0,CoHgO2N,6.212303492599758,6.212303492599758,0.0
3837,perov_3837.cif,0.22641370666299998,0.0036749309468000002,0.78,True,3.0021860283927637,CrBeO2F,6.402593661826012,6.402593661826012,0.0
3838,perov_3838.cif,0.205986141132,0.0018374654734000001,1.06,True,0.6295335562505517,GaRuO3,5.7246571798787995,5.7246571798787995,0.0
3839,perov_3839.cif,0.348902091114,0.0036749309468000002,0.94,True,-4.998235261087856e-15,LaPdO2F,6.0239523398998465,6.0239523398998465,0.0
3840,perov_3840.cif,0.38887273407,0.0018374654734000001,0.6,True,2.7951482932683622,LaFeON2,5.4661224314340595,5.4661224314340595,0.0
3841,perov_3841.cif,0.194244138586,0.0036749309468000002,1.04,True,3.774513691261599e-15,BiHgO2F,6.614706841363164,6.614706841363164,0.0
3842,perov_3842.cif,0.251148818964,0.0018374654734000001,1.92,True,-0.04293942638529587,WAuO2N,6.3672304786696285,6.3672304786696285,0.0
3843,perov_3843.cif,0.141961804538,0.0018374654734000001,1.96,True,0.505346388616303,HgAgO3,6.29633287605109,6.29633287605109,0.0
3844,perov_3844.cif,0.114727646593,0.0018374654734000001,2.94,True,0.4594181554836999,BeKN3,5.391665438797957,5.391665438797957,0.0
3845,perov_3845.cif,0.304320724106,0.0018374654734000001,0.98,True,0.6040027257169385,TeMoO2N,6.153925905457507,6.153925905457507,0.0
3846,perov_3846.cif,0.13735913495,0.0018374654734000001,1.64,True,0.0,CsBaO2N,4.750514569992892,4.750514569992892,0.0
3847,perov_3847.cif,0.228538259523,0.0018374654734000001,1.06,True,1.4788860387666567,CdNiO3,6.082025914412081,6.082025914412081,0.0
3848,perov_3848.cif,0.288247614936,0.0018374654734000001,-0.08,True,3.000059800864648,BaMnO3,5.318786190542141,5.318786190542141,0.0
3849,perov_3849.cif,0.12173509635299999,0.0018374654734000001,2.48,True,1.597636231739484,BeZnO2S,5.986697103723311,5.986697103723311,0.0