,provider,id,Full_Formula,formula,space_group,a_lattice_param,b_lattice_param,c_lattice_param,aplha_degree,beta_degree,gamma_degree,pbc,sits,volume,species_at_sites,is_stable,is_magnetic,formation_energy,energy_above_hull,band_gap
785,mp,mp-1207078.cif,Ca1 Ni1 H3,CaNiH3,Pm-3m,3.50426521,3.50426521,3.50426521,90.0,90.0,90.0,"(True, True, True)","[PeriodicSite: Ca (1.752, 1.752, 1.752) [0.5, 0.5, 0.5], PeriodicSite: Ni (0.0, 0.0, 0.0) [0.0, 0.0, 0.0], PeriodicSite: H (1.752, 0.0, 0.0) [0.5, -0.0, -0.0], PeriodicSite: H (0.0, 1.752, 0.0) [-0.0, 0.5, -0.0], PeriodicSite: H (0.0, 0.0, 1.752) [-0.0, -0.0, 0.5]]",43.03193756126438,"[Element Ca, Element Ni, Element H, Element H, Element H]",True,False,-0.5625987510000001,0.0,0.0
786,mp,mp-1187752.cif,U1 Be1 O3,UBeO3,Pm-3m,3.579678,3.579678,3.579678,90.0,90.0,90.0,"(True, True, True)","[PeriodicSite: U (0.0, 0.0, 0.0) [0.0, 0.0, 0.0], PeriodicSite: Be (1.79, 1.79, 1.79) [0.5, 0.5, 0.5], PeriodicSite: O (1.79, 1.79, 0.0) [0.5, 0.5, 0.0], PeriodicSite: O (1.79, 0.0, 1.79) [0.5, 0.0, 0.5], PeriodicSite: O (0.0, 1.79, 1.79) [0.0, 0.5, 0.5]]",45.87033247113277,"[Element U, Element Be, Element O, Element O, Element O]",False,True,-3.0531460962500008,0.4390261450000157,0.0
787,mp,mp-1216578.cif,Tm1 Bi1 Te3,TmBiTe3,R3m,10.971052912155741,10.971052912155741,10.971052972693732,23.052056765316486,23.052056765316486,23.052058703672753,"(True, True, True)","[PeriodicSite: Tm (12.64, 0.0, 1.498) [0.3974, 0.3974, 0.3974], PeriodicSite: Bi (19.16, 0.0, 2.272) [0.6024, 0.6024, 0.6024], PeriodicSite: Te (0.1405, 0.0, 0.01666) [0.004419, 0.004419, 0.004419], PeriodicSite: Te (6.856, 0.0, 0.8128) [0.2156, 0.2156, 0.2156], PeriodicSite: Te (24.81, 0.0, 2.942) [0.7802, 0.7802, 0.7802]]",177.70710128082487,"[Element Tm, Element Bi, Element Te, Element Te, Element Te]",False,False,-1.0424202493333339,0.0237806857499967,1.1145000000000005
788,mp,mp-1213642.cif,Cs1 Sr1 Cl3,CsSrCl3,Pm-3m,5.67282446,5.67282446,5.67282446,90.0,90.0,90.0,"(True, True, True)","[PeriodicSite: Cs (2.836, 2.836, 2.836) [0.5, 0.5, 0.5], PeriodicSite: Sr (0.0, 0.0, 0.0) [0.0, 0.0, 0.0], PeriodicSite: Cl (2.836, 0.0, 0.0) [0.5, -0.0, -0.0], PeriodicSite: Cl (0.0, 2.836, 0.0) [-0.0, 0.5, -0.0], PeriodicSite: Cl (0.0, 0.0, 2.836) [0.0, -0.0, 0.5]]",182.55680856735304,"[Element Cs, Element Sr, Element Cl, Element Cl, Element Cl]",False,False,-2.65217505891954,0.01282253599999894,4.970000000000001
789,mp,mp-1184562.cif,Ge1 Bi1 O3,GeBiO3,Pm-3m,3.94791,3.94791,3.94791,90.0,90.0,90.0,"(True, True, True)","[PeriodicSite: Ge (1.974, 1.974, 1.974) [0.5, 0.5, 0.5], PeriodicSite: Bi (0.0, 0.0, 0.0) [0.0, 0.0, 0.0], PeriodicSite: O (1.974, 1.974, 0.0) [0.5, 0.5, 0.0], PeriodicSite: O (1.974, 0.0, 1.974) [0.5, 0.0, 0.5], PeriodicSite: O (0.0, 1.974, 1.974) [0.0, 0.5, 0.5]]",61.53209907785566,"[Element Ge, Element Bi, Element O, Element O, Element O]",False,False,-1.4569523902500001,0.39624907833333634,0.0
790,mp,mp-1070665.cif,N1 Cl1 O3,NClO3,R3m,4.713392144359834,4.7133922557377925,4.713392144359834,85.04043774537557,85.04044814144008,85.04043774537557,"(True, True, True)","[PeriodicSite: N (0.3059, 0.0, 0.1909) [0.04078, 0.04078, 0.04078], PeriodicSite: Cl (3.713, 0.0, 2.317) [0.495, 0.495, 0.495], PeriodicSite: O (3.021, -1.233, 2.725) [0.195, 0.5821, 0.5821], PeriodicSite: O (3.021, 1.233, 2.725) [0.5821, 0.5821, 0.195], PeriodicSite: O (4.152, 0.0, 0.9127) [0.5821, 0.195, 0.5821]]",103.60083975173725,"[Element N, Element Cl, Element O, Element O, Element O]",False,True,0.8890317077500001,1.4117499769999995,0.0
791,mp,mp-1183291.cif,Ba1 Er1 O3,BaErO3,Pm-3m,4.395468,4.395468,4.395468,90.0,90.0,90.0,"(True, True, True)","[PeriodicSite: Ba (0.0, 0.0, 0.0) [0.0, 0.0, 0.0], PeriodicSite: Er (2.198, 2.198, 2.198) [0.5, 0.5, 0.5], PeriodicSite: O (2.198, 2.198, 0.0) [0.5, 0.5, 0.0], PeriodicSite: O (2.198, 0.0, 2.198) [0.5, 0.0, 0.5], PeriodicSite: O (0.0, 2.198, 2.198) [0.0, 0.5, 0.5]]",84.92105246203396,"[Element Ba, Element Er, Element O, Element O, Element O]",False,True,-3.1653510012499995,0.08670264150000051,0.0
792,mp,mp-1017563.cif,Ga1 Pt3 C1,GaPt3C,Pm-3m,4.206392,4.206392,4.206392,90.0,90.0,90.0,"(True, True, True)","[PeriodicSite: Ga (0.0, 0.0, 0.0) [0.0, 0.0, 0.0], PeriodicSite: Pt (2.103, 0.0, 2.103) [0.5, 0.0, 0.5], PeriodicSite: Pt (0.0, 2.103, 2.103) [0.0, 0.5, 0.5], PeriodicSite: Pt (2.103, 2.103, 0.0) [0.5, 0.5, 0.0], PeriodicSite: C (2.103, 2.103, 2.103) [0.5, 0.5, 0.5]]",74.4267797077286,"[Element Ga, Element Pt, Element Pt, Element Pt, Element C]",False,False,0.34858780899999997,0.7039177634999989,0.0
793,mp,mp-1224901.cif,Ga1 Fe3 As1,GaFe3As,P-6m2,4.055707783813326,4.058539,4.867666,90.0,90.0,59.97689679048431,"(True, True, True)","[PeriodicSite: Ga (-2.029, -1.17, -3.651) [0.3332, 0.3334, 0.75], PeriodicSite: Fe (-4.059, -1.756e-05, -2.439) [5e-06, 1.0, 0.5011], PeriodicSite: Fe (-4.059, -1.756e-05, -4.862) [5e-06, 1.0, 0.9989], PeriodicSite: Fe (-4.059, -2.342, -3.651) [0.6669, 0.6666, 0.75], PeriodicSite: As (-4.059, -2.341, -1.217) [0.6665, 0.6667, 0.25]]",69.37238574850309,"[Element Ga, Element Fe, Element Fe, Element Fe, Element As]",False,True,-0.10701675049999863,0.07383283342857094,0.0
794,mp,mp-1023129.cif,K1 Cu1 Cl3,KCuCl3,Pm-3m,4.79805545,4.79804927,4.79805133,90.0,90.0,90.0,"(True, True, True)","[PeriodicSite: K (0.0, 0.0, 0.0) [-0.0, -0.0, -0.0], PeriodicSite: Cu (2.399, 2.399, 2.399) [0.5, 0.5, 0.5], PeriodicSite: Cl (0.0, 2.399, 2.399) [-0.0, 0.5, 0.5], PeriodicSite: Cl (2.399, 0.0, 2.399) [0.5, -0.0, 0.5], PeriodicSite: Cl (2.399, 2.399, 0.0) [0.5, 0.5, -0.0]]",110.45741002736315,"[Element K, Element Cu, Element Cl, Element Cl, Element Cl]",False,True,-1.4491636485999997,0.013923566000000331,0.0
795,mp,mp-1070737.cif,K3 C1 O1,K3CO,Pm-3m,5.231062,5.231062,5.231062,90.0,90.0,90.0,"(True, True, True)","[PeriodicSite: K (0.0, 0.0, 2.616) [0.0, 0.0, 0.5], PeriodicSite: K (0.0, 2.616, 0.0) [0.0, 0.5, 0.0], PeriodicSite: K (2.616, 0.0, 0.0) [0.5, 0.0, 0.0], PeriodicSite: C (2.616, 2.616, 2.616) [0.5, 0.5, 0.5], PeriodicSite: O (0.0, 0.0, 0.0) [0.0, 0.0, 0.0]]",143.1428310364701,"[Element K, Element K, Element K, Element C, Element O]",False,True,0.18917514295000046,1.0414770914833333,0.2972
796,mp,mp-1219075.cif,Sm1 Bi1 Te3,SmBiTe3,R3m,10.987690548918197,10.987690548918197,10.987690054927615,23.32620415519724,23.32620415519724,23.326205961810075,"(True, True, True)","[PeriodicSite: Sm (19.17, 0.0, 2.338) [0.6025, 0.6025, 0.6025], PeriodicSite: Bi (12.67, 0.0, 1.545) [0.3982, 0.3982, 0.3982], PeriodicSite: Te (31.75, 0.0, 3.873) [0.998, 0.998, 0.998], PeriodicSite: Te (24.92, 0.0, 3.04) [0.7834, 0.7834, 0.7834], PeriodicSite: Te (6.934, 0.0, 0.8459) [0.2179, 0.2179, 0.2179]]",182.6076813011558,"[Element Sm, Element Bi, Element Te, Element Te, Element Te]",False,False,-1.0652656190000003,0.036121816749997926,0.9818000000000007
797,mp,mp-1099588.cif,Sm1 Fe1 O3,SmFeO3,Pm-3m,3.909141,3.909141,3.909141,90.0,90.0,90.0,"(True, True, True)","[PeriodicSite: Sm (1.955, 1.955, 1.955) [0.5, 0.5, 0.5], PeriodicSite: Fe (0.0, 0.0, 0.0) [0.0, 0.0, 0.0], PeriodicSite: O (1.955, 0.0, 0.0) [0.5, 0.0, 0.0], PeriodicSite: O (0.0, 1.955, 0.0) [0.0, 0.5, 0.0], PeriodicSite: O (0.0, 0.0, 1.955) [0.0, 0.0, 0.5]]",59.73708222101029,"[Element Sm, Element Fe, Element O, Element O, Element O]",False,True,-2.58219682025,0.2223701854999991,0.7234999999999996
798,mp,mp-1068577.cif,Zr1 Pb1 O3,ZrPbO3,Pm-3m,4.208933,4.208933,4.208933,90.0,90.0,90.0,"(True, True, True)","[PeriodicSite: Zr (0.0, 0.0, 0.0) [0.0, 0.0, 0.0], PeriodicSite: Pb (2.104, 2.104, 2.104) [0.5, 0.5, 0.5], PeriodicSite: O (2.104, 0.0, 0.0) [0.5, 0.0, 0.0], PeriodicSite: O (0.0, 0.0, 2.104) [0.0, 0.0, 0.5], PeriodicSite: O (0.0, 2.104, 0.0) [0.0, 0.5, 0.0]]",74.56174053380131,"[Element Zr, Element Pb, Element O, Element O, Element O]",False,False,-2.79469878925,0.0818658328124986,2.2792000000000003
799,mp,mp-1183221.cif,B1 Ir1 O3,BIrO3,Pm-3m,3.415662,3.415662,3.415662,90.0,90.0,90.0,"(True, True, True)","[PeriodicSite: B (1.708, 1.708, 1.708) [0.5, 0.5, 0.5], PeriodicSite: Ir (0.0, 0.0, 0.0) [0.0, 0.0, 0.0], PeriodicSite: O (1.708, 1.708, 0.0) [0.5, 0.5, 0.0], PeriodicSite: O (1.708, 0.0, 1.708) [0.5, 0.0, 0.5], PeriodicSite: O (0.0, 1.708, 1.708) [0.0, 0.5, 0.5]]",39.84966404394991,"[Element B, Element Ir, Element O, Element O, Element O]",False,False,-0.29427113108333314,1.6729221789166662,0.0
800,mp,mp-1004524.cif,H1 Pb1 I3,HPbI3,Pm-3m,6.244213,6.244213,6.244213,90.0,90.0,90.0,"(True, True, True)","[PeriodicSite: H (3.122, 3.122, 3.122) [0.5, 0.5, 0.5], PeriodicSite: Pb (0.0, 0.0, 0.0) [0.0, 0.0, 0.0], PeriodicSite: I (0.0, 0.0, 3.122) [0.0, 0.0, 0.5], PeriodicSite: I (0.0, 3.122, 0.0) [0.0, 0.5, 0.0], PeriodicSite: I (3.122, 0.0, 0.0) [0.5, 0.0, 0.0]]",243.46308866936582,"[Element H, Element Pb, Element I, Element I, Element I]",False,True,0.007110330999999803,0.6608972572499994,0.0
801,mp,mp-1185847.cif,Mg1 Bi1 O3,MgBiO3,Pm-3m,3.935588,3.935588,3.935588,90.0,90.0,90.0,"(True, True, True)","[PeriodicSite: Mg (0.0, 0.0, 0.0) [0.0, 0.0, 0.0], PeriodicSite: Bi (1.968, 1.968, 1.968) [0.5, 0.5, 0.5], PeriodicSite: O (0.0, 0.0, 1.968) [0.0, 0.0, 0.5], PeriodicSite: O (0.0, 1.968, 0.0) [0.0, 0.5, 0.0], PeriodicSite: O (1.968, 0.0, 0.0) [0.5, 0.0, 0.0]]",60.95774362961122,"[Element Mg, Element Bi, Element O, Element O, Element O]",False,True,-1.6589005272500004,0.45651727566667066,0.0
802,mp,mp-1187191.cif,Sr1 Sc1 O3,SrScO3,Pm-3m,4.139926,4.139926,4.139926,90.0,90.0,90.0,"(True, True, True)","[PeriodicSite: Sr (0.0, 0.0, 0.0) [0.0, 0.0, 0.0], PeriodicSite: Sc (2.07, 2.07, 2.07) [0.5, 0.5, 0.5], PeriodicSite: O (2.07, 2.07, 0.0) [0.5, 0.5, 0.0], PeriodicSite: O (2.07, 0.0, 2.07) [0.5, 0.0, 0.5], PeriodicSite: O (0.0, 2.07, 2.07) [0.0, 0.5, 0.5]]",70.95413907681151,"[Element Sr, Element Sc, Element O, Element O, Element O]",False,True,-3.1879038755833333,0.09125746725000727,0.0
803,mp,mp-1186154.cif,Na1 Ni1 O3,NaNiO3,Pm-3m,3.821156,3.821156,3.821156,90.0,90.0,90.0,"(True, True, True)","[PeriodicSite: Na (0.0, 0.0, 0.0) [0.0, 0.0, 0.0], PeriodicSite: Ni (1.911, 1.911, 1.911) [0.5, 0.5, 0.5], PeriodicSite: O (1.911, 1.911, 0.0) [0.5, 0.5, 0.0], PeriodicSite: O (1.911, 0.0, 1.911) [0.5, 0.0, 0.5], PeriodicSite: O (0.0, 1.911, 1.911) [0.0, 0.5, 0.5]]",55.793589759155374,"[Element Na, Element Ni, Element O, Element O, Element O]",False,True,-0.7502801605603444,0.32057334475000143,0.0
804,mp,mp-1013714.cif,Ba3 Sb1 As1,Ba3SbAs,Pm-3m,6.492956,6.492956,6.492956,90.0,90.0,90.0,"(True, True, True)","[PeriodicSite: Ba (0.0, 3.246, 3.246) [0.0, 0.5, 0.5], PeriodicSite: Ba (3.246, 0.0, 3.246) [0.5, 0.0, 0.5], PeriodicSite: Ba (3.246, 3.246, 0.0) [0.5, 0.5, 0.0], PeriodicSite: Sb (3.246, 3.246, 3.246) [0.5, 0.5, 0.5], PeriodicSite: As (0.0, 0.0, 0.0) [0.0, 0.0, 0.0]]",273.7331402002433,"[Element Ba, Element Ba, Element Ba, Element Sb, Element As]",False,False,-0.461621409,0.6231983427384624,0.0
805,mp,mp-1183706.cif,Ce1 Mn1 O3,CeMnO3,Pm-3m,3.922932,3.922932,3.922932,90.0,90.0,90.0,"(True, True, True)","[PeriodicSite: Ce (0.0, 0.0, 0.0) [0.0, 0.0, 0.0], PeriodicSite: Mn (1.961, 1.961, 1.961) [0.5, 0.5, 0.5], PeriodicSite: O (1.961, 1.961, 0.0) [0.5, 0.5, 0.0], PeriodicSite: O (1.961, 0.0, 1.961) [0.5, 0.0, 0.5], PeriodicSite: O (0.0, 1.961, 1.961) [0.0, 0.5, 0.5]]",60.371551975903536,"[Element Ce, Element Mn, Element O, Element O, Element O]",False,True,-2.7935649198362063,0.3559639159999808,0.0
806,mp,mp-1110791.cif,Rb1 Au1 Cl3,RbAuCl3,Pm-3m,5.163533,5.163533,5.163533,90.0,90.0,90.0,"(True, True, True)","[PeriodicSite: Rb (2.582, 2.582, 2.582) [0.5, 0.5, 0.5], PeriodicSite: Au (0.0, 0.0, 0.0) [0.0, 0.0, 0.0], PeriodicSite: Cl (0.0, 0.0, 2.582) [0.0, 0.0, 0.5], PeriodicSite: Cl (2.582, 0.0, 0.0) [0.5, 0.0, 0.0], PeriodicSite: Cl (0.0, 2.582, 0.0) [0.0, 0.5, 0.0]]",137.67049400123696,"[Element Rb, Element Au, Element Cl, Element Cl, Element Cl]",False,False,-1.3228079974999996,0.05370293725000064,0.0
807,mp,mp-1206970.cif,K1 Pa1 O3,KPaO3,Pm-3m,4.35600548,4.35600548,4.35600548,90.0,90.0,90.0,"(True, True, True)","[PeriodicSite: K (2.178, 2.178, 2.178) [0.5, 0.5, 0.5], PeriodicSite: Pa (0.0, 0.0, 0.0) [-0.0, -0.0, -0.0], PeriodicSite: O (2.178, 0.0, 0.0) [0.5, 0.0, -0.0], PeriodicSite: O (0.0, 2.178, 0.0) [-0.0, 0.5, -0.0], PeriodicSite: O (0.0, 0.0, 2.178) [-0.0, -0.0, 0.5]]",82.6542619610523,"[Element K, Element Pa, Element O, Element O, Element O]",True,False,-3.5633817498499996,0.0,3.0477
808,mp,mp-11775.cif,Rb1 U1 O3,RbUO3,Pm-3m,4.32836957,4.32837261,4.32837261,90.0,90.0,90.0,"(True, True, True)","[PeriodicSite: Rb (2.164, 2.164, 2.164) [0.5, 0.5, 0.5], PeriodicSite: U (0.0, 0.0, 0.0) [-0.0, -0.0, 0.0], PeriodicSite: O (0.0, 2.164, 0.0) [0.0, 0.5, -0.0], PeriodicSite: O (0.0, 0.0, 2.164) [0.0, 0.0, 0.5], PeriodicSite: O (2.164, 0.0, 0.0) [0.5, -0.0, -0.0]]",81.09117912744907,"[Element Rb, Element U, Element O, Element O, Element O]",True,True,-3.3053484967499998,0.0,0.45420000000000016
809,mp,mp-1101450.cif,Nb1 O1 F3,NbOF3,Immm,5.205345132834614,5.205345132834614,5.205345132834614,136.11936958831257,133.28484868450948,66.02039946628217,"(True, True, True)","[PeriodicSite: Nb (0.0, 0.0, 0.0) [0.0, 0.0, 0.0], PeriodicSite: O (1.945, 0.0, 0.0) [0.0, 0.5, 0.5], PeriodicSite: F (0.0, 0.0, 6.812) [0.7803, 0.7803, 0.0], PeriodicSite: F (0.0, 2.064, 0.0) [0.5, 0.0, 0.5], PeriodicSite: F (0.0, 0.0, 1.918) [0.2197, 0.2197, 0.0]]",70.08291592913585,"[Element Nb, Element O, Element F, Element F, Element F]",False,False,-3.206102933249999,0.08839797700000052,2.0803000000000003
810,mp,mp-1223843.cif,Ho1 Bi1 Te3,HoBiTe3,R3m,10.869459814602104,10.869459814602104,10.869459710228702,23.341074213844227,23.341074213844227,23.34107577489569,"(True, True, True)","[PeriodicSite: Ho (12.54, 0.0, 1.506) [0.3983, 0.3983, 0.3983], PeriodicSite: Bi (18.93, 0.0, 2.273) [0.6012, 0.6012, 0.6012], PeriodicSite: Te (24.63, 0.0, 2.958) [0.7823, 0.7823, 0.7823], PeriodicSite: Te (6.742, 0.0, 0.8098) [0.2142, 0.2142, 0.2142], PeriodicSite: Te (0.1273, 0.0, 0.01529) [0.004043, 0.004043, 0.004043]]",176.99206743063942,"[Element Ho, Element Bi, Element Te, Element Te, Element Te]",False,False,-1.054456664,0.025304999499998537,1.0659
811,mp,mp-1183917.cif,Cs1 Mo1 O3,CsMoO3,Pm-3m,4.13308,4.13308,4.13308,90.0,90.0,90.0,"(True, True, True)","[PeriodicSite: Cs (0.0, 0.0, 0.0) [0.0, 0.0, 0.0], PeriodicSite: Mo (2.067, 2.067, 2.067) [0.5, 0.5, 0.5], PeriodicSite: O (2.067, 2.067, 0.0) [0.5, 0.5, 0.0], PeriodicSite: O (2.067, 0.0, 2.067) [0.5, 0.0, 0.5], PeriodicSite: O (0.0, 2.067, 2.067) [0.0, 0.5, 0.5]]",70.60272032171409,"[Element Cs, Element Mo, Element O, Element O, Element O]",False,True,-1.7787066328362073,0.3737824352499999,0.0
812,mp,mp-1183397.cif,Co1 B1 O3,CoBO3,Pm-3m,3.354742,3.354742,3.354742,90.0,90.0,90.0,"(True, True, True)","[PeriodicSite: Co (0.0, 0.0, 0.0) [0.0, 0.0, 0.0], PeriodicSite: B (1.677, 1.677, 1.677) [0.5, 0.5, 0.5], PeriodicSite: O (1.677, 1.677, 0.0) [0.5, 0.5, 0.0], PeriodicSite: O (1.677, 0.0, 1.677) [0.5, 0.0, 0.5], PeriodicSite: O (0.0, 1.677, 1.677) [0.0, 0.5, 0.5]]",37.75525238159948,"[Element Co, Element B, Element O, Element O, Element O]",False,True,-0.9160808880833343,1.2265901213472175,0.0
813,mp,mp-1021667.cif,I1 Cl1 O3,IClO3,Pm-3m,4.141923,4.141923,4.141923,90.0,90.0,90.0,"(True, True, True)","[PeriodicSite: I (0.0, 0.0, 0.0) [0.0, 0.0, 0.0], PeriodicSite: Cl (2.071, 2.071, 2.071) [0.5, 0.5, 0.5], PeriodicSite: O (0.0, 2.071, 0.0) [0.0, 0.5, 0.0], PeriodicSite: O (0.0, 0.0, 2.071) [0.0, 0.0, 0.5], PeriodicSite: O (2.071, 0.0, 0.0) [0.5, 0.0, 0.0]]",71.05686828778931,"[Element I, Element Cl, Element O, Element O, Element O]",False,True,0.031003968749999444,0.624350833437501,0.0
814,mp,mp-1183983.cif,Ga1 Ni1 O3,GaNiO3,Pm-3m,3.671321,3.671321,3.671321,90.0,90.0,90.0,"(True, True, True)","[PeriodicSite: Ga (0.0, 0.0, 0.0) [0.0, 0.0, 0.0], PeriodicSite: Ni (1.836, 1.836, 1.836) [0.5, 0.5, 0.5], PeriodicSite: O (1.836, 1.836, 0.0) [0.5, 0.5, 0.0], PeriodicSite: O (1.836, 0.0, 1.836) [0.5, 0.0, 0.5], PeriodicSite: O (0.0, 1.836, 1.836) [0.0, 0.5, 0.5]]",49.484259465906604,"[Element Ga, Element Ni, Element O, Element O, Element O]",False,True,-0.6515520267500001,1.0006185047500002,0.0
815,mp,mp-1187784.cif,U1 B1 O3,UBO3,Pm-3m,3.587809,3.587809,3.587809,90.0,90.0,90.0,"(True, True, True)","[PeriodicSite: U (0.0, 0.0, 0.0) [0.0, 0.0, 0.0], PeriodicSite: B (1.794, 1.794, 1.794) [0.5, 0.5, 0.5], PeriodicSite: O (1.794, 1.794, 0.0) [0.5, 0.5, 0.0], PeriodicSite: O (1.794, 0.0, 1.794) [0.5, 0.0, 0.5], PeriodicSite: O (0.0, 1.794, 1.794) [0.0, 0.5, 0.5]]",46.18361720936252,"[Element U, Element B, Element O, Element O, Element O]",False,True,-2.2223851250833335,0.9734987449791834,0.0
816,mp,mp-1096800.cif,La1 Sc1 O3,LaScO3,Pm-3m,4.078908,4.078908,4.078908,90.0,90.0,90.0,"(True, True, True)","[PeriodicSite: La (0.0, 0.0, 0.0) [0.0, 0.0, 0.0], PeriodicSite: Sc (2.039, 2.039, 2.039) [0.5, 0.5, 0.5], PeriodicSite: O (0.0, 2.039, 2.039) [0.0, 0.5, 0.5], PeriodicSite: O (2.039, 0.0, 2.039) [0.5, 0.0, 0.5], PeriodicSite: O (2.039, 2.039, 0.0) [0.5, 0.5, 0.0]]",67.8627929880572,"[Element La, Element Sc, Element O, Element O, Element O]",False,False,-3.7472449312499996,0.20408182299999922,2.8177000000000003
817,mp,mp-1187655.cif,Tm1 Ge1 O3,TmGeO3,Pm-3m,3.887071,3.887071,3.887071,90.0,90.0,90.0,"(True, True, True)","[PeriodicSite: Tm (0.0, 0.0, 0.0) [0.0, 0.0, 0.0], PeriodicSite: Ge (1.944, 1.944, 1.944) [0.5, 0.5, 0.5], PeriodicSite: O (1.944, 1.944, 0.0) [0.5, 0.5, 0.0], PeriodicSite: O (1.944, 0.0, 1.944) [0.5, 0.0, 0.5], PeriodicSite: O (0.0, 1.944, 1.944) [0.0, 0.5, 0.5]]",58.73100332958047,"[Element Tm, Element Ge, Element O, Element O, Element O]",False,False,-2.3084070755833337,0.7512309106250061,0.0
818,mp,mp-1068048.cif,Ba1 Sn3 Au1,BaSn3Au,I4mm,6.653871796213132,6.653871796213132,6.653871796213132,135.20719748340136,135.20719748340136,65.20843136305719,"(True, True, True)","[PeriodicSite: Ba (0.0, 0.0, 0.003133) [0.0002795, 0.0002795, 0.0], PeriodicSite: Sn (0.0, 0.0, 6.741) [0.6013, 0.6013, -0.0], PeriodicSite: Sn (2.22e-16, 2.535, 2.798) [0.7495, 0.2495, 0.5], PeriodicSite: Sn (2.535, 2.22e-16, 2.798) [0.2495, 0.7495, 0.5], PeriodicSite: Au (0.0, 0.0, 4.005) [0.3572, 0.3572, 0.0]]",144.1073772472349,"[Element Ba, Element Sn, Element Sn, Element Sn, Element Au]",True,False,-0.5027489010000004,0.0,0.0
819,mp,mp-1183919.cif,Cs1 Pr1 O3,CsPrO3,Pm-3m,4.754944,4.754944,4.754944,90.0,90.0,90.0,"(True, True, True)","[PeriodicSite: Cs (0.0, 0.0, 0.0) [0.0, 0.0, 0.0], PeriodicSite: Pr (2.377, 2.377, 2.377) [0.5, 0.5, 0.5], PeriodicSite: O (2.377, 2.377, 0.0) [0.5, 0.5, 0.0], PeriodicSite: O (2.377, 0.0, 2.377) [0.5, 0.0, 0.5], PeriodicSite: O (0.0, 2.377, 2.377) [0.0, 0.5, 0.5]]",107.50687043553488,"[Element Cs, Element Pr, Element O, Element O, Element O]",False,True,-2.1279018038362074,0.2804663158749996,0.0
820,mp,mp-1013534.cif,Sr3 Sb1 N1,Sr3SbN,Pm-3m,6.221556,6.221556,6.221556,90.0,90.0,90.0,"(True, True, True)","[PeriodicSite: Sr (0.0, 3.111, 3.111) [0.0, 0.5, 0.5], PeriodicSite: Sr (3.111, 0.0, 3.111) [0.5, 0.0, 0.5], PeriodicSite: Sr (3.111, 3.111, 0.0) [0.5, 0.5, 0.0], PeriodicSite: Sb (3.111, 3.111, 3.111) [0.5, 0.5, 0.5], PeriodicSite: N (0.0, 0.0, 0.0) [0.0, 0.0, 0.0]]",240.822490633365,"[Element Sr, Element Sr, Element Sr, Element Sb, Element N]",False,True,0.45296869100000026,1.4830311140000005,0.0
821,mp,mp-1186597.cif,Pm1 In1 O3,PmInO3,Pm-3m,4.14608,4.14608,4.14608,90.0,90.0,90.0,"(True, True, True)","[PeriodicSite: Pm (0.0, 0.0, 0.0) [0.0, 0.0, 0.0], PeriodicSite: In (2.073, 2.073, 2.073) [0.5, 0.5, 0.5], PeriodicSite: O (2.073, 2.073, 0.0) [0.5, 0.5, 0.0], PeriodicSite: O (2.073, 0.0, 2.073) [0.5, 0.0, 0.5], PeriodicSite: O (0.0, 2.073, 2.073) [0.0, 0.5, 0.5]]",71.27102965144373,"[Element Pm, Element In, Element O, Element O, Element O]",False,False,-2.43810318675,0.47924233474999944,1.6185