,provider,id,Full_Formula,formula,space_group,a_lattice_param,b_lattice_param,c_lattice_param,aplha_degree,beta_degree,gamma_degree,pbc,sits,volume,species_at_sites,is_stable,is_magnetic,formation_energy,energy_above_hull,band_gap
748,mp,mp-1184383.cif,Eu1 Au1 O3,EuAuO3,Pm-3m,4.109532,4.109532,4.109532,90.0,90.0,90.0,"(True, True, True)","[PeriodicSite: Eu (0.0, 0.0, 0.0) [0.0, 0.0, 0.0], PeriodicSite: Au (2.055, 2.055, 2.055) [0.5, 0.5, 0.5], PeriodicSite: O (2.055, 2.055, 0.0) [0.5, 0.5, 0.0], PeriodicSite: O (2.055, 0.0, 2.055) [0.5, 0.0, 0.5], PeriodicSite: O (0.0, 2.055, 2.055) [0.0, 0.5, 0.5]]",69.40281719206341,"[Element Eu, Element Au, Element O, Element O, Element O]",False,True,-1.482924193250001,0.370365252666665,0.0
749,mp,mp-1185401.cif,Li1 Gd1 O3,LiGdO3,Pm-3m,3.703512,3.703512,3.703512,90.0,90.0,90.0,"(True, True, True)","[PeriodicSite: Li (1.852, 1.852, 1.852) [0.5, 0.5, 0.5], PeriodicSite: Gd (0.0, 0.0, 0.0) [0.0, 0.0, 0.0], PeriodicSite: O (1.852, 1.852, 0.0) [0.5, 0.5, 0.0], PeriodicSite: O (1.852, 0.0, 1.852) [0.5, 0.0, 0.5], PeriodicSite: O (0.0, 1.852, 1.852) [0.0, 0.5, 0.5]]",50.79737479231591,"[Element Li, Element Gd, Element O, Element O, Element O]",False,True,-2.262667611916666,0.3536309167142857,0.0
750,mp,mp-1013733.cif,Ca3 Bi1 Sb1,Ca3BiSb,Pm-3m,5.81,5.81,5.81,90.0,90.0,90.0,"(True, True, True)","[PeriodicSite: Ca (0.0, 2.905, 2.905) [0.0, 0.5, 0.5], PeriodicSite: Ca (2.905, 0.0, 2.905) [0.5, 0.0, 0.5], PeriodicSite: Ca (2.905, 2.905, 0.0) [0.5, 0.5, 0.0], PeriodicSite: Bi (0.0, 0.0, 0.0) [0.0, 0.0, 0.0], PeriodicSite: Sb (2.905, 2.905, 2.905) [0.5, 0.5, 0.5]]",196.12294099999997,"[Element Ca, Element Ca, Element Ca, Element Bi, Element Sb]",False,False,-0.6556349659999995,0.3018545961470629,0.0
751,mp,mp-1219584.cif,Rb1 N1 O3,RbNO3,R3m,4.751269959706036,4.751269516244053,4.751269754817548,72.80689611192831,72.80690647945545,72.80690224677673,"(True, True, True)","[PeriodicSite: Rb (2.707, 2.096, 3.831) [0.4949, 0.4949, 0.4949], PeriodicSite: N (0.1846, 0.1429, 0.2612) [0.03374, 0.03374, 0.03374], PeriodicSite: O (2.197, 3.878, 6.091) [0.2944, 0.9049, 0.9049], PeriodicSite: O (4.304, 1.156, 6.091) [0.9049, 0.2944, 0.9049], PeriodicSite: O (5.008, 3.878, 4.105) [0.9049, 0.9049, 0.2944]]",95.30445599134761,"[Element Rb, Element N, Element O, Element O, Element O]",True,False,-1.4222132817500004,0.0,3.0415
752,mp,mp-1184219.cif,Er1 Tl1 O3,ErTlO3,Pm-3m,4.406,4.406,4.406,90.0,90.0,90.0,"(True, True, True)","[PeriodicSite: Er (2.203, 2.203, 2.203) [0.5, 0.5, 0.5], PeriodicSite: Tl (0.0, 0.0, 0.0) [0.0, 0.0, 0.0], PeriodicSite: O (2.203, 2.203, 0.0) [0.5, 0.5, 0.0], PeriodicSite: O (2.203, 0.0, 2.203) [0.5, 0.0, 0.5], PeriodicSite: O (0.0, 2.203, 2.203) [0.0, 0.5, 0.5]]",85.532955416,"[Element Er, Element Tl, Element O, Element O, Element O]",False,True,-1.9974728339166667,0.5838220385000019,0.0
753,mp,mp-1186198.cif,Na1 Zn1 O3,NaZnO3,Pm-3m,3.907165,3.907165,3.907165,90.0,90.0,90.0,"(True, True, True)","[PeriodicSite: Na (0.0, 0.0, 0.0) [0.0, 0.0, 0.0], PeriodicSite: Zn (1.954, 1.954, 1.954) [0.5, 0.5, 0.5], PeriodicSite: O (1.954, 1.954, 0.0) [0.5, 0.5, 0.0], PeriodicSite: O (1.954, 0.0, 1.954) [0.5, 0.0, 0.5], PeriodicSite: O (0.0, 1.954, 1.954) [0.0, 0.5, 0.5]]",59.646539963363715,"[Element Na, Element Zn, Element O, Element O, Element O]",False,False,-0.853539116560345,0.41152234599999904,0.0
754,mp,mp-1207081.cif,Cs1 Tm1 H3,CsTmH3,Pm-3m,4.451799,4.451799,4.451799,90.0,90.0,90.0,"(True, True, True)","[PeriodicSite: Cs (2.226, 2.226, 2.226) [0.5, 0.5, 0.5], PeriodicSite: Tm (0.0, 0.0, 0.0) [0.0, 0.0, 0.0], PeriodicSite: H (2.226, 0.0, 0.0) [0.5, 0.0, 0.0], PeriodicSite: H (0.0, 2.226, 0.0) [0.0, 0.5, 0.0], PeriodicSite: H (0.0, 0.0, 2.226) [0.0, 0.0, 0.5]]",88.22804230427565,"[Element Cs, Element Tm, Element H, Element H, Element H]",False,False,-0.26927902791954034,0.31820378274712313,0.0
755,mp,mp-1188026.cif,Zr1 B1 O3,ZrBO3,Pm-3m,3.448181,3.448181,3.448181,90.0,90.0,90.0,"(True, True, True)","[PeriodicSite: Zr (0.0, 0.0, 0.0) [0.0, 0.0, 0.0], PeriodicSite: B (1.724, 1.724, 1.724) [0.5, 0.5, 0.5], PeriodicSite: O (1.724, 1.724, 0.0) [0.5, 0.5, 0.0], PeriodicSite: O (1.724, 0.0, 1.724) [0.5, 0.0, 0.5], PeriodicSite: O (0.0, 1.724, 1.724) [0.0, 0.5, 0.5]]",40.99870729715771,"[Element Zr, Element B, Element O, Element O, Element O]",False,False,-2.0851648730833334,1.162429119300004,0.0
756,mp,mp-1186533.cif,Pm1 Be1 O3,PmBeO3,Pm-3m,3.638462,3.638462,3.638462,90.0,90.0,90.0,"(True, True, True)","[PeriodicSite: Pm (0.0, 0.0, 0.0) [0.0, 0.0, 0.0], PeriodicSite: Be (1.819, 1.819, 1.819) [0.5, 0.5, 0.5], PeriodicSite: O (1.819, 1.819, 0.0) [0.5, 0.5, 0.0], PeriodicSite: O (1.819, 0.0, 1.819) [0.5, 0.0, 0.5], PeriodicSite: O (0.0, 1.819, 1.819) [0.0, 0.5, 0.5]]",48.16743617261043,"[Element Pm, Element Be, Element O, Element O, Element O]",False,True,-2.8864854177499994,0.27334349887500053,0.0
757,mp,mp-1215924.cif,Y1 Sb1 Te3,YSbTe3,R3m,4.350143314566314,4.350143,10.732970568805916,78.30784508724628,101.69215453344073,119.99999000366235,"(True, True, True)","[PeriodicSite: Y (2.175, -1.256, 8.417) [0.6022, 0.3978, 0.8066], PeriodicSite: Sb (2.175, -1.256, 2.06) [0.3991, 0.6009, 0.1974], PeriodicSite: Te (4.35, -2.161e-07, 6.766) [0.2161, 0.7839, 0.6484], PeriodicSite: Te (2.152e-07, -2.512, 3.699) [0.7848, 0.2152, 0.3545], PeriodicSite: Te (-2.173e-06, -2.512, 10.36) [0.9977, 0.002285, 0.9931]]",171.01305685561616,"[Element Y, Element Sb, Element Te, Element Te, Element Te]",False,False,-1.0023197513333337,0.03225492974999966,0.8608000000000002
758,mp,mp-1097006.cif,K1 Al1 H3,KAlH3,Pm-3m,3.981683,3.981683,3.981683,90.0,90.0,90.0,"(True, True, True)","[PeriodicSite: K (1.991, 1.991, 1.991) [0.5, 0.5, 0.5], PeriodicSite: Al (0.0, 0.0, 0.0) [0.0, 0.0, 0.0], PeriodicSite: H (0.0, 1.991, 0.0) [0.0, 0.5, 0.0], PeriodicSite: H (0.0, 0.0, 1.991) [0.0, 0.0, 0.5], PeriodicSite: H (1.991, 0.0, 0.0) [0.5, 0.0, 0.0]]",63.124804004285735,"[Element K, Element Al, Element H, Element H, Element H]",False,False,-0.1069686156000003,0.18446226216666783,0.0
759,mp,mp-1186948.cif,Sb1 Pb1 O3,SbPbO3,Pm-3m,4.216556,4.216556,4.216556,90.0,90.0,90.0,"(True, True, True)","[PeriodicSite: Sb (2.108, 2.108, 2.108) [0.5, 0.5, 0.5], PeriodicSite: Pb (0.0, 0.0, 0.0) [0.0, 0.0, 0.0], PeriodicSite: O (2.108, 2.108, 0.0) [0.5, 0.5, 0.0], PeriodicSite: O (2.108, 0.0, 2.108) [0.5, 0.0, 0.5], PeriodicSite: O (0.0, 2.108, 2.108) [0.0, 0.5, 0.5]]",74.967601732332,"[Element Sb, Element Pb, Element O, Element O, Element O]",False,False,-1.56453471325,0.17002349410937434,0.0
760,mp,mp-10706.cif,Zr1 Ru3 C1,ZrRu3C,Pm-3m,4.0755165,4.0755165,4.0755165,90.0,90.0,90.0,"(True, True, True)","[PeriodicSite: Zr (0.0, 0.0, 0.0) [0.0, 0.0, 0.0], PeriodicSite: Ru (0.0, 2.038, 2.038) [-0.0, 0.5, 0.5], PeriodicSite: Ru (2.038, 0.0, 2.038) [0.5, -0.0, 0.5], PeriodicSite: Ru (2.038, 2.038, 0.0) [0.5, 0.5, -0.0], PeriodicSite: C (2.038, 2.038, 2.038) [0.5, 0.5, 0.5]]",67.69365555236604,"[Element Zr, Element Ru, Element Ru, Element Ru, Element C]",True,False,-0.32646306150000015,0.0,0.0
761,mp,mp-1183911.cif,Cs1 As1 O3,CsAsO3,Pm-3m,4.075589,4.075589,4.075589,90.0,90.0,90.0,"(True, True, True)","[PeriodicSite: Cs (0.0, 0.0, 0.0) [0.0, 0.0, 0.0], PeriodicSite: As (2.038, 2.038, 2.038) [0.5, 0.5, 0.5], PeriodicSite: O (2.038, 2.038, 0.0) [0.5, 0.5, 0.0], PeriodicSite: O (2.038, 0.0, 2.038) [0.5, 0.0, 0.5], PeriodicSite: O (0.0, 2.038, 2.038) [0.0, 0.5, 0.5]]",67.69726825568856,"[Element Cs, Element As, Element O, Element O, Element O]",False,False,-1.131483349836207,0.7626517824999999,0.0
762,mp,mp-1185404.cif,Li1 Pr1 O3,LiPrO3,Pm-3m,3.790912,3.790912,3.790912,90.0,90.0,90.0,"(True, True, True)","[PeriodicSite: Li (1.895, 1.895, 1.895) [0.5, 0.5, 0.5], PeriodicSite: Pr (0.0, 0.0, 0.0) [0.0, 0.0, 0.0], PeriodicSite: O (1.895, 1.895, 0.0) [0.5, 0.5, 0.0], PeriodicSite: O (1.895, 0.0, 1.895) [0.5, 0.0, 0.5], PeriodicSite: O (0.0, 1.895, 1.895) [0.0, 0.5, 0.5]]",54.47924863528783,"[Element Li, Element Pr, Element O, Element O, Element O]",False,True,-2.3010489569166674,0.23509200108928496,0.0
763,mp,mp-1187745.cif,U1 Hg1 O3,UHgO3,Pm-3m,4.289145,4.289145,4.289145,90.0,90.0,90.0,"(True, True, True)","[PeriodicSite: U (2.145, 2.145, 2.145) [0.5, 0.5, 0.5], PeriodicSite: Hg (0.0, 0.0, 0.0) [0.0, 0.0, 0.0], PeriodicSite: O (2.145, 2.145, 0.0) [0.5, 0.5, 0.0], PeriodicSite: O (2.145, 0.0, 2.145) [0.5, 0.0, 0.5], PeriodicSite: O (0.0, 2.145, 2.145) [0.0, 0.5, 0.5]]",78.90639189116675,"[Element U, Element Hg, Element O, Element O, Element O]",False,True,-2.64610927425,0.24439755300000243,0.0
764,mp,mp-11822.cif,Ca3 Ge1 N1,Ca3GeN,Pm-3m,4.80418381,4.80418176,4.80418381,90.0,90.0,90.0,"(True, True, True)","[PeriodicSite: Ca (2.402, 0.0, 2.402) [0.5, 0.0, 0.5], PeriodicSite: Ca (0.0, 2.402, 2.402) [-0.0, 0.5, 0.5], PeriodicSite: Ca (2.402, 2.402, 0.0) [0.5, 0.5, -0.0], PeriodicSite: Ge (0.0, 0.0, 0.0) [0.0, -0.0, 0.0], PeriodicSite: N (2.402, 2.402, 2.402) [0.5, 0.5, 0.5]]",110.88138976749332,"[Element Ca, Element Ca, Element Ca, Element Ge, Element N]",True,False,-0.8072252419999998,0.0,0.0
765,mp,mp-1184215.cif,Fe1 As1 O3,FeAsO3,Pm-3m,3.799462,3.799462,3.799462,90.0,90.0,90.0,"(True, True, True)","[PeriodicSite: Fe (0.0, 0.0, 0.0) [0.0, 0.0, 0.0], PeriodicSite: As (1.9, 1.9, 1.9) [0.5, 0.5, 0.5], PeriodicSite: O (1.9, 1.9, 0.0) [0.5, 0.5, 0.0], PeriodicSite: O (1.9, 0.0, 1.9) [0.5, 0.0, 0.5], PeriodicSite: O (0.0, 1.9, 1.9) [0.0, 0.5, 0.5]]",54.84869713950589,"[Element Fe, Element As, Element O, Element O, Element O]",False,True,-0.8889191402500003,0.7799321877500454,0.0
766,mp,mp-1100778.cif,Zn1 Cu1 O3,ZnCuO3,Pm-3m,3.735142,3.735142,3.735142,90.0,90.0,90.0,"(True, True, True)","[PeriodicSite: Zn (0.0, 0.0, 0.0) [0.0, 0.0, 0.0], PeriodicSite: Cu (1.868, 1.868, 1.868) [0.5, 0.5, 0.5], PeriodicSite: O (1.868, 1.868, 0.0) [0.5, 0.5, 0.0], PeriodicSite: O (1.868, 0.0, 1.868) [0.5, 0.0, 0.5], PeriodicSite: O (0.0, 1.868, 1.868) [0.0, 0.5, 0.5]]",52.11003339679049,"[Element Zn, Element Cu, Element O, Element O, Element O]",False,False,-0.5418636512499994,0.6077152121250009,0.0
767,mp,mp-1016849.cif,Cd1 Ru1 O3,CdRuO3,Pm-3m,3.928223,3.928223,3.928223,90.0,90.0,90.0,"(True, True, True)","[PeriodicSite: Cd (0.0, 0.0, 0.0) [0.0, 0.0, 0.0], PeriodicSite: Ru (1.964, 1.964, 1.964) [0.5, 0.5, 0.5], PeriodicSite: O (1.964, 1.964, 0.0) [0.5, 0.5, 0.0], PeriodicSite: O (1.964, 0.0, 1.964) [0.5, 0.0, 0.5], PeriodicSite: O (0.0, 1.964, 1.964) [0.0, 0.5, 0.5]]",60.61615746211363,"[Element Cd, Element Ru, Element O, Element O, Element O]",False,True,-1.0873130392500001,0.3339321009999958,0.0
768,mp,mp-1215511.cif,Yb1 Ga3 Au1,YbGa3Au,Cm,4.066289037660142,4.066289058370375,6.478874643491767,71.42197235213122,71.42198775646406,89.91221095582486,"(True, True, True)","[PeriodicSite: Yb (4.07, 4.07, 0.04892) [0.9975, 0.9975, 0.005092], PeriodicSite: Ga (4.069, 2.048, 2.922) [0.7473, 0.2499, 0.5026], PeriodicSite: Ga (2.048, 4.069, 2.922) [0.2499, 0.7473, 0.5026], PeriodicSite: Ga (4.081, 4.081, 4.53) [0.6102, 0.6102, 0.7797], PeriodicSite: Au (2.038, 2.038, 1.225) [0.3951, 0.3952, 0.21]]",95.65497634762751,"[Element Yb, Element Ga, Element Ga, Element Ga, Element Au]",True,False,-0.5505107764999998,0.0,0.0
769,mp,mp-1183681.cif,Co1 Sb1 O3,CoSbO3,Pm-3m,3.764759,3.764759,3.764759,90.0,90.0,90.0,"(True, True, True)","[PeriodicSite: Co (0.0, 0.0, 0.0) [0.0, 0.0, 0.0], PeriodicSite: Sb (1.882, 1.882, 1.882) [0.5, 0.5, 0.5], PeriodicSite: O (0.0, 0.0, 1.882) [0.0, 0.0, 0.5], PeriodicSite: O (0.0, 1.882, 0.0) [0.0, 0.5, 0.0], PeriodicSite: O (1.882, 0.0, 0.0) [0.5, 0.0, 0.0]]",53.359474093335905,"[Element Co, Element Sb, Element O, Element O, Element O]",False,False,-1.0738952762500005,0.5800262838749939,0.29549999999999965
770,mp,mp-1184309.cif,Eu1 Lu1 O3,EuLuO3,Pm-3m,4.257594,4.257594,4.257594,90.0,90.0,90.0,"(True, True, True)","[PeriodicSite: Eu (0.0, 0.0, 0.0) [0.0, 0.0, 0.0], PeriodicSite: Lu (2.129, 2.129, 2.129) [0.5, 0.5, 0.5], PeriodicSite: O (2.129, 2.129, 0.0) [0.5, 0.5, 0.0], PeriodicSite: O (2.129, 0.0, 2.129) [0.5, 0.0, 0.5], PeriodicSite: O (0.0, 2.129, 2.129) [0.0, 0.5, 0.5]]",77.17786059059614,"[Element Eu, Element Lu, Element O, Element O, Element O]",False,True,-3.2421587832500003,0.4128473134999986,0.0
771,mp,mp-1185896.cif,Mg1 Mo1 O3,MgMoO3,Pm-3m,4.002462,4.002462,4.002462,90.0,90.0,90.0,"(True, True, True)","[PeriodicSite: Mg (0.0, 0.0, 0.0) [0.0, 0.0, 0.0], PeriodicSite: Mo (2.001, 2.001, 2.001) [0.5, 0.5, 0.5], PeriodicSite: O (2.001, 2.001, 0.0) [0.5, 0.5, 0.0], PeriodicSite: O (2.001, 0.0, 2.001) [0.5, 0.0, 0.5], PeriodicSite: O (0.0, 2.001, 2.001) [0.0, 0.5, 0.5]]",64.1182487522513,"[Element Mg, Element Mo, Element O, Element O, Element O]",False,True,-1.79428986725,0.640768282999999,0.0
772,mp,mp-1017591.cif,Ba1 Ru1 O3,BaRuO3,Pm-3m,4.063668,4.063668,4.063668,90.0,90.0,90.0,"(True, True, True)","[PeriodicSite: Ba (0.0, 0.0, 0.0) [0.0, 0.0, 0.0], PeriodicSite: Ru (2.032, 2.032, 2.032) [0.5, 0.5, 0.5], PeriodicSite: O (2.032, 2.032, 0.0) [0.5, 0.5, 0.0], PeriodicSite: O (2.032, 0.0, 2.032) [0.5, 0.0, 0.5], PeriodicSite: O (0.0, 2.032, 2.032) [0.0, 0.5, 0.5]]",67.1049654561984,"[Element Ba, Element Ru, Element O, Element O, Element O]",False,True,-2.12221301725,0.06676936933333266,0.0
773,mp,mp-1207179.cif,Sm1 Sb1 O3,SmSbO3,Pm-3m,4.269023,4.269023,4.269023,90.0,90.0,90.0,"(True, True, True)","[PeriodicSite: Sm (2.135, 2.135, 2.135) [0.5, 0.5, 0.5], PeriodicSite: Sb (0.0, 0.0, 0.0) [0.0, 0.0, 0.0], PeriodicSite: O (2.135, 0.0, 0.0) [0.5, 0.0, 0.0], PeriodicSite: O (0.0, 2.135, 0.0) [0.0, 0.5, 0.0], PeriodicSite: O (0.0, 0.0, 2.135) [0.0, 0.0, 0.5]]",77.80105459668391,"[Element Sm, Element Sb, Element O, Element O, Element O]",False,False,-2.0179700322500005,0.8600861209999939,0.0
774,mp,mp-1018644.cif,Y1 B1 Pt3,YBPt3,Pm-3m,4.344528,4.344528,4.344528,90.0,90.0,90.0,"(True, True, True)","[PeriodicSite: Y (0.0, 0.0, 0.0) [0.0, 0.0, 0.0], PeriodicSite: B (2.172, 2.172, 2.172) [0.5, 0.5, 0.5], PeriodicSite: Pt (0.0, 2.172, 2.172) [0.0, 0.5, 0.5], PeriodicSite: Pt (2.172, 2.172, 0.0) [0.5, 0.5, 0.0], PeriodicSite: Pt (2.172, 0.0, 2.172) [0.5, 0.0, 0.5]]",82.00263382948431,"[Element Y, Element B, Element Pt, Element Pt, Element Pt]",False,False,-0.7319254411666669,0.0956104422222257,0.0
775,mp,mp-1184353.cif,Eu1 Tm1 O3,EuTmO3,Pm-3m,4.268535,4.268535,4.268535,90.0,90.0,90.0,"(True, True, True)","[PeriodicSite: Eu (0.0, 0.0, 0.0) [0.0, 0.0, 0.0], PeriodicSite: Tm (2.134, 2.134, 2.134) [0.5, 0.5, 0.5], PeriodicSite: O (2.134, 2.134, 0.0) [0.5, 0.5, 0.0], PeriodicSite: O (2.134, 0.0, 2.134) [0.5, 0.0, 0.5], PeriodicSite: O (0.0, 2.134, 2.134) [0.0, 0.5, 0.5]]",77.77437689449803,"[Element Eu, Element Tm, Element O, Element O, Element O]",False,True,-3.191913032583334,0.44742355512500076,0.0
776,mp,mp-1068985.cif,Sn1 C1 Cl3,SnCCl3,R3m,4.997462695737608,4.997462695737608,4.997462638587407,80.06370851491282,80.06370851491282,80.06370910587681,"(True, True, True)","[PeriodicSite: Sn (4.374, 0.0, 2.426) [0.4983, 0.4983, 0.4983], PeriodicSite: C (8.164, 0.0, 4.528) [0.9299, 0.9299, 0.9299], PeriodicSite: Cl (7.024, 1.47, 4.866) [0.5421, 0.9994, 0.9994], PeriodicSite: Cl (8.259, 0.0, 2.639) [0.9994, 0.9994, 0.5421], PeriodicSite: Cl (7.024, -1.47, 4.866) [0.9994, 0.5421, 0.9994]]",119.77525694766497,"[Element Sn, Element C, Element Cl, Element Cl, Element Cl]",False,True,0.1562765634999998,1.2905542297500006,0.0
777,mp,mp-1016999.cif,Sr1 Ge1 O3,SrGeO3,Pm-3m,3.85681,3.85681,3.85681,90.0,90.0,90.0,"(True, True, True)","[PeriodicSite: Sr (0.0, 0.0, 0.0) [0.0, 0.0, 0.0], PeriodicSite: Ge (1.928, 1.928, 1.928) [0.5, 0.5, 0.5], PeriodicSite: O (1.928, 1.928, 0.0) [0.5, 0.5, 0.0], PeriodicSite: O (1.928, 0.0, 1.928) [0.5, 0.0, 0.5], PeriodicSite: O (0.0, 1.928, 1.928) [0.0, 0.5, 0.5]]",57.36998463477624,"[Element Sr, Element Ge, Element O, Element O, Element O]",False,False,-2.594421469583333,0.1500441693333343,0.0
778,mp,mp-1076000.cif,La1 Ag1 O3,LaAgO3,Pm-3m,4.108444,4.108444,4.108444,90.0,90.0,90.0,"(True, True, True)","[PeriodicSite: La (2.054, 2.054, 2.054) [0.5, 0.5, 0.5], PeriodicSite: Ag (0.0, 0.0, 0.0) [0.0, 0.0, 0.0], PeriodicSite: O (2.054, 0.0, 0.0) [0.5, 0.0, 0.0], PeriodicSite: O (0.0, 2.054, 0.0) [0.0, 0.5, 0.0], PeriodicSite: O (0.0, 0.0, 2.054) [0.0, 0.0, 0.5]]",69.34770852603963,"[Element La, Element Ag, Element O, Element O, Element O]",False,False,-1.8889146675833346,0.23829572866666737,0.0
779,mp,mp-1184944.cif,K1 Ho1 O3,KHoO3,Pm-3m,4.448354,4.448354,4.448354,90.0,90.0,90.0,"(True, True, True)","[PeriodicSite: K (0.0, 0.0, 0.0) [0.0, 0.0, 0.0], PeriodicSite: Ho (2.224, 2.224, 2.224) [0.5, 0.5, 0.5], PeriodicSite: O (2.224, 2.224, 0.0) [0.5, 0.5, 0.0], PeriodicSite: O (2.224, 0.0, 2.224) [0.5, 0.0, 0.5], PeriodicSite: O (0.0, 2.224, 2.224) [0.0, 0.5, 0.5]]",88.02337641990908,"[Element K, Element Ho, Element O, Element O, Element O]",False,True,-2.31417894585,0.2600543665833337,0.0
780,mp,mp-1016853.cif,Ca1 V1 O3,CaVO3,Pm-3m,3.830406,3.830406,3.830406,90.0,90.0,90.0,"(True, True, True)","[PeriodicSite: Ca (0.0, 0.0, 0.0) [0.0, 0.0, 0.0], PeriodicSite: V (1.915, 1.915, 1.915) [0.5, 0.5, 0.5], PeriodicSite: O (1.915, 1.915, 0.0) [0.5, 0.5, 0.0], PeriodicSite: O (1.915, 0.0, 1.915) [0.5, 0.0, 0.5], PeriodicSite: O (0.0, 1.915, 1.915) [0.0, 0.5, 0.5]]",56.19975561423256,"[Element Ca, Element V, Element O, Element O, Element O]",False,True,-2.8320323372500007,0.10623166291071406,0.0
781,mp,mp-1069708.cif,Ba1 Ge3 Ir1,BaGe3Ir,I4mm,6.060256347771853,6.060256347771853,6.060256347771853,135.64909467296133,135.64909467296133,64.52330936633383,"(True, True, True)","[PeriodicSite: Ba (0.0, 0.0, 6.042) [0.5895, 0.5895, -0.0], PeriodicSite: Ge (0.0, 0.0, 0.008459) [0.0008254, 0.0008254, 0.0], PeriodicSite: Ge (2.287, 0.0, 3.504) [0.3418, 0.8418, 0.5], PeriodicSite: Ge (0.0, 2.287, 3.504) [0.8418, 0.3418, 0.5], PeriodicSite: Ir (0.0, 0.0, 2.47) [0.241, 0.241, 0.0]]",107.25389637075739,"[Element Ba, Element Ge, Element Ge, Element Ge, Element Ir]",True,False,-0.5248931189999994,0.0,0.0
782,mp,mp-1186662.cif,Pu1 Ga1 O3,PuGaO3,Pm-3m,3.873306,3.873306,3.873306,90.0,90.0,90.0,"(True, True, True)","[PeriodicSite: Pu (0.0, 0.0, 0.0) [0.0, 0.0, 0.0], PeriodicSite: Ga (1.937, 1.937, 1.937) [0.5, 0.5, 0.5], PeriodicSite: O (1.937, 1.937, 0.0) [0.5, 0.5, 0.0], PeriodicSite: O (1.937, 0.0, 1.937) [0.5, 0.0, 0.5], PeriodicSite: O (0.0, 1.937, 1.937) [0.0, 0.5, 0.5]]",58.10927082340733,"[Element Pu, Element Ga, Element O, Element O, Element O]",False,True,-2.67795643275,0.2689982405000002,0.0
783,mp,mp-10175.cif,K1 Cd1 F3,KCdF3,Pm-3m,4.38208902,4.38208902,4.38208902,90.0,90.0,90.0,"(True, True, True)","[PeriodicSite: K (0.0, 0.0, 0.0) [-0.0, -0.0, -0.0], PeriodicSite: Cd (2.191, 2.191, 2.191) [0.5, 0.5, 0.5], PeriodicSite: F (0.0, 2.191, 2.191) [0.0, 0.5, 0.5], PeriodicSite: F (2.191, 0.0, 2.191) [0.5, 0.0, 0.5], PeriodicSite: F (2.191, 2.191, 0.0) [0.5, 0.5, 0.0]]",84.14795913800039,"[Element K, Element Cd, Element F, Element F, Element F]",False,False,-2.6884609681,0.025577015000002312,3.1006
784,mp,mp-1068011.cif,Sr1 Al1 H3,SrAlH3,Pm-3m,4.585462,4.585462,4.585462,90.0,90.0,90.0,"(True, True, True)","[PeriodicSite: Sr (2.293, 2.293, 2.293) [0.5, 0.5, 0.5], PeriodicSite: Al (0.0, 0.0, 0.0) [0.0, 0.0, 0.0], PeriodicSite: H (0.0, 2.293, 2.293) [0.0, 0.5, 0.5], PeriodicSite: H (2.293, 2.293, 0.0) [0.5, 0.5, 0.0], PeriodicSite: H (2.293, 0.0, 2.293) [0.5, 0.0, 0.5]]",96.41604136487081,"[Element Sr, Element Al, Element H, Element H, Element H]",False,False,0.217934609666667,0.6990129102857159,0.07439999999999997