,provider,id,Full_Formula,formula,space_group,a_lattice_param,b_lattice_param,c_lattice_param,aplha_degree,beta_degree,gamma_degree,pbc,sits,volume,species_at_sites,is_stable,is_magnetic,formation_energy,energy_above_hull,band_gap
1625,mp,mp-978503.cif,Sm1 Be1 O3,SmBeO3,Pm-3m,3.626649,3.626649,3.626649,90.0,90.0,90.0,"(True, True, True)","[PeriodicSite: Sm (0.0, 0.0, 0.0) [0.0, 0.0, 0.0], PeriodicSite: Be (1.813, 1.813, 1.813) [0.5, 0.5, 0.5], PeriodicSite: O (1.813, 1.813, 0.0) [0.5, 0.5, 0.0], PeriodicSite: O (1.813, 0.0, 1.813) [0.5, 0.0, 0.5], PeriodicSite: O (0.0, 1.813, 1.813) [0.0, 0.5, 0.5]]",47.69980187266984,"[Element Sm, Element Be, Element O, Element O, Element O]",False,True,-2.88841963525,0.2843350662499988,0.0
1626,mp,mp-977117.cif,Na1 Te1 O3,NaTeO3,Pm-3m,4.066369,4.066369,4.066369,90.0,90.0,90.0,"(True, True, True)","[PeriodicSite: Na (0.0, 0.0, 0.0) [0.0, 0.0, 0.0], PeriodicSite: Te (2.033, 2.033, 2.033) [0.5, 0.5, 0.5], PeriodicSite: O (2.033, 2.033, 0.0) [0.5, 0.5, 0.0], PeriodicSite: O (2.033, 0.0, 2.033) [0.5, 0.0, 0.5], PeriodicSite: O (0.0, 2.033, 2.033) [0.0, 0.5, 0.5]]",67.23886247503413,"[Element Na, Element Te, Element O, Element O, Element O]",False,False,-1.5881696238936782,0.13237541356250482,0.0
1627,mp,mp-978506.cif,Sm1 Si1 O3,SmSiO3,Pm-3m,3.768474,3.768474,3.768474,90.0,90.0,90.0,"(True, True, True)","[PeriodicSite: Sm (0.0, 0.0, 0.0) [0.0, 0.0, 0.0], PeriodicSite: Si (1.884, 1.884, 1.884) [0.5, 0.5, 0.5], PeriodicSite: O (1.884, 1.884, 0.0) [0.5, 0.5, 0.0], PeriodicSite: O (1.884, 0.0, 1.884) [0.5, 0.0, 0.5], PeriodicSite: O (0.0, 1.884, 1.884) [0.0, 0.5, 0.5]]",53.517592677572,"[Element Sm, Element Si, Element O, Element O, Element O]",False,False,-2.837226276250001,0.6600386046249938,0.0
1628,mp,mp-20180.cif,Mn3 Ge1 C1,Mn3GeC,Pm-3m,3.793362,3.793362,3.793362,90.0,90.0,90.0,"(True, True, True)","[PeriodicSite: Mn (1.897, 0.0, 1.897) [0.5, 0.0, 0.5], PeriodicSite: Mn (0.0, 1.897, 1.897) [0.0, 0.5, 0.5], PeriodicSite: Mn (1.897, 1.897, 0.0) [0.5, 0.5, 0.0], PeriodicSite: Ge (0.0, 0.0, 0.0) [0.0, 0.0, 0.0], PeriodicSite: C (1.897, 1.897, 1.897) [0.5, 0.5, 0.5]]",54.58494386621112,"[Element Mn, Element Mn, Element Mn, Element Ge, Element C]",False,True,-0.057744077258621476,0.039573640499998675,0.0
1629,mp,mp-754941.cif,Eu1 Cr1 O3,EuCrO3,Pm-3m,3.879619,3.879619,3.879619,90.0,90.0,90.0,"(True, True, True)","[PeriodicSite: Eu (1.94, 1.94, 1.94) [0.5, 0.5, 0.5], PeriodicSite: Cr (0.0, 0.0, 0.0) [0.0, 0.0, 0.0], PeriodicSite: O (1.94, 0.0, 0.0) [0.5, 0.0, 0.0], PeriodicSite: O (0.0, 1.94, 0.0) [0.0, 0.5, 0.0], PeriodicSite: O (0.0, 0.0, 1.94) [0.0, 0.0, 0.5]]",58.39386651041873,"[Element Eu, Element Cr, Element O, Element O, Element O]",False,True,-2.7250647452500005,0.077613537499996,0.0
1630,mp,mp-22988.cif,Cs1 Ge1 Cl3,CsGeCl3,R3m,5.461891123863339,5.461891123863339,5.461891073079682,89.54623144876582,89.54623144876582,89.54621700859916,"(True, True, True)","[PeriodicSite: Cs (7.783, 0.0, 5.481) [0.9984, 0.9984, 0.9984], PeriodicSite: Ge (4.019, 0.0, 2.83) [0.5155, 0.5155, 0.5155], PeriodicSite: Cl (5.625, -1.738, 2.733) [0.9486, 0.4967, 0.4967], PeriodicSite: Cl (3.891, 0.0, 5.195) [0.4967, 0.4967, 0.9486], PeriodicSite: Cl (5.625, 1.738, 2.733) [0.4967, 0.9486, 0.4967]]",162.92527551742106,"[Element Cs, Element Ge, Element Cl, Element Cl, Element Cl]",True,False,-1.7127245685862065,0.0,2.1534999999999997
1631,mp,mp-29241.cif,Ca3 Sn1 O1,Ca3SnO,Pm-3m,4.82648645,4.82648645,4.82648645,90.0,90.0,90.0,"(True, True, True)","[PeriodicSite: Ca (2.413, 0.0, 2.413) [0.5, 0.0, 0.5], PeriodicSite: Ca (0.0, 2.413, 2.413) [0.0, 0.5, 0.5], PeriodicSite: Ca (2.413, 2.413, 0.0) [0.5, 0.5, 0.0], PeriodicSite: Sn (0.0, 0.0, 0.0) [0.0, 0.0, 0.0], PeriodicSite: O (2.413, 2.413, 2.413) [0.5, 0.5, 0.5]]",112.43286406637701,"[Element Ca, Element Ca, Element Ca, Element Sn, Element O]",True,False,-1.7676214487500004,0.0,0.0
1632,mp,mp-18747.cif,Sr1 Mo1 O3,SrMoO3,Pm-3m,4.080579,4.080579,4.080579,90.0,90.0,90.0,"(True, True, True)","[PeriodicSite: Sr (2.04, 2.04, 2.04) [0.5, 0.5, 0.5], PeriodicSite: Mo (0.0, 0.0, 0.0) [0.0, 0.0, 0.0], PeriodicSite: O (2.04, 0.0, 0.0) [0.5, 0.0, 0.0], PeriodicSite: O (0.0, 2.04, 0.0) [0.0, 0.5, 0.0], PeriodicSite: O (0.0, 0.0, 2.04) [0.0, 0.0, 0.5]]",67.94623090034395,"[Element Sr, Element Mo, Element O, Element O, Element O]",False,True,-2.514191494583333,0.08409752500000067,0.0
1633,mp,mp-568005.cif,Cs1 Yb1 Br3,CsYbBr3,Pm-3m,5.6523954,5.6523954,5.6523954,90.0,90.0,90.0,"(True, True, True)","[PeriodicSite: Cs (0.0, 0.0, 0.0) [-0.0, -0.0, 0.0], PeriodicSite: Yb (2.826, 2.826, 2.826) [0.5, 0.5, 0.5], PeriodicSite: Br (0.0, 2.826, 2.826) [-0.0, 0.5, 0.5], PeriodicSite: Br (2.826, 2.826, 0.0) [0.5, 0.5, -0.0], PeriodicSite: Br (2.826, 0.0, 2.826) [0.5, -0.0, 0.5]]",180.5916237413473,"[Element Cs, Element Yb, Element Br, Element Br, Element Br]",True,False,-2.3962854435862067,0.0,4.3382000000000005
1634,mp,mp-22435.cif,Ce1 B1 Pt3,CeBPt3,P4mm,3.99756756,3.99756756,5.14411559,90.0,90.0,90.0,"(True, True, True)","[PeriodicSite: Ce (0.0, 0.0, 5.104) [-0.0, 0.0, 0.9921], PeriodicSite: B (1.999, 1.999, 3.624) [0.5, 0.5, 0.7045], PeriodicSite: Pt (0.0, 1.999, 2.648) [-0.0, 0.5, 0.5147], PeriodicSite: Pt (1.999, 1.999, 0.596) [0.5, 0.5, 0.1159], PeriodicSite: Pt (1.999, 0.0, 2.648) [0.5, 0.0, 0.5147]]",82.20577785631383,"[Element Ce, Element B, Element Pt, Element Pt, Element Pt]",True,True,-0.8760021348333324,0.0,0.0
1635,mp,mp-973681.cif,Lu1 Rh1 O3,LuRhO3,Pm-3m,3.924034,3.924034,3.924034,90.0,90.0,90.0,"(True, True, True)","[PeriodicSite: Lu (1.962, 1.962, 1.962) [0.5, 0.5, 0.5], PeriodicSite: Rh (0.0, 0.0, 0.0) [0.0, 0.0, 0.0], PeriodicSite: O (0.0, 0.0, 1.962) [0.0, 0.0, 0.5], PeriodicSite: O (0.0, 1.962, 0.0) [0.0, 0.5, 0.0], PeriodicSite: O (1.962, 0.0, 0.0) [0.5, 0.0, 0.0]]",60.42244361076046,"[Element Lu, Element Rh, Element O, Element O, Element O]",False,False,-1.88940016325,0.7235573884999988,0.0
1636,mp,mp-998414.cif,Cu1 Ag1 F3,CuAgF3,Pm-3m,4.008428,4.008428,4.008428,90.0,90.0,90.0,"(True, True, True)","[PeriodicSite: Cu (0.0, 0.0, 0.0) [0.0, 0.0, 0.0], PeriodicSite: Ag (2.004, 2.004, 2.004) [0.5, 0.5, 0.5], PeriodicSite: F (2.004, 0.0, 0.0) [0.5, 0.0, 0.0], PeriodicSite: F (0.0, 2.004, 0.0) [0.0, 0.5, 0.0], PeriodicSite: F (0.0, 0.0, 2.004) [0.0, 0.0, 0.5]]",64.40539697285884,"[Element Cu, Element Ag, Element F, Element F, Element F]",False,True,-1.5464515388333333,0.03492886200000189,0.0
1637,mp,mp-5304.cif,La1 Al1 O3,LaAlO3,Pm-3m,3.7829488,3.7829488,3.7829488,90.0,90.0,90.0,"(True, True, True)","[PeriodicSite: La (1.891, 1.891, 1.891) [0.5, 0.5, 0.5], PeriodicSite: Al (0.0, 0.0, 0.0) [0.0, -0.0, -0.0], PeriodicSite: O (0.0, 1.891, 0.0) [0.0, 0.5, 0.0], PeriodicSite: O (0.0, 0.0, 1.891) [-0.0, 0.0, 0.5], PeriodicSite: O (1.891, 0.0, 0.0) [0.5, 0.0, 0.0]]",54.13665153348018,"[Element La, Element Al, Element O, Element O, Element O]",False,False,-3.7161682382500003,0.006788503999999307,3.4924
1638,mp,mp-4342.cif,K1 Nb1 O3,KNbO3,P4mm,4.01297268,4.01297268,4.11029183,90.0,90.0,90.0,"(True, True, True)","[PeriodicSite: K (2.006, 2.006, 2.055) [0.5, 0.5, 0.5], PeriodicSite: Nb (0.0, 0.0, 0.06131) [-0.0, 0.0, 0.01492], PeriodicSite: O (2.006, 0.0, 4.004) [0.5, 0.0, 0.9741], PeriodicSite: O (0.0, 2.006, 4.004) [-0.0, 0.5, 0.9741], PeriodicSite: O (0.0, 0.0, 1.939) [-0.0, 0.0, 0.4716]]",66.19193300770227,"[Element K, Element Nb, Element O, Element O, Element O]",False,False,-2.85495074585,0.0021344659999993354,1.4759999999999998
1639,mp,mp-1504314.cif,Al1 Cu1 O3,AlCuO3,Pm-3m,3.699148,3.699148,3.699148,90.0,90.0,90.0,"(True, True, True)","[PeriodicSite: Al (0.0, 0.0, 0.0) [0.0, 0.0, 0.0], PeriodicSite: Cu (1.85, 1.85, 1.85) [0.5, 0.5, 0.5], PeriodicSite: O (1.85, 1.85, 0.0) [0.5, 0.5, 0.0], PeriodicSite: O (1.85, 0.0, 1.85) [0.5, 0.0, 0.5], PeriodicSite: O (0.0, 1.85, 1.85) [0.0, 0.5, 0.5]]",50.618016416915935,"[Element Al, Element Cu, Element O, Element O, Element O]",False,False,-0.8497621292499999,1.3243879295454493,0.0
1640,mp,mp-1435808.cif,Al1 Co1 O3,AlCoO3,Pm-3m,3.694482,3.694482,3.694482,90.0,90.0,90.0,"(True, True, True)","[PeriodicSite: Al (0.0, 0.0, 0.0) [0.0, 0.0, 0.0], PeriodicSite: Co (1.847, 1.847, 1.847) [0.5, 0.5, 0.5], PeriodicSite: O (1.847, 1.847, 0.0) [0.5, 0.5, 0.0], PeriodicSite: O (1.847, 0.0, 1.847) [0.5, 0.0, 0.5], PeriodicSite: O (0.0, 1.847, 1.847) [0.0, 0.5, 0.5]]",50.426713548382544,"[Element Al, Element Co, Element O, Element O, Element O]",False,False,-1.0491270202500005,1.3282716538181791,0.0
1641,mp,mp-570231.cif,Cs1 Cd1 Br3,CsCdBr3,Pm-3m,5.53006949,5.53006949,5.53006949,90.0,90.0,90.0,"(True, True, True)","[PeriodicSite: Cs (0.0, 0.0, 0.0) [-0.0, -0.0, -0.0], PeriodicSite: Cd (2.765, 2.765, 2.765) [0.5, 0.5, 0.5], PeriodicSite: Br (0.0, 2.765, 2.765) [-0.0, 0.5, 0.5], PeriodicSite: Br (2.765, 2.765, 0.0) [0.5, 0.5, -0.0], PeriodicSite: Br (2.765, 0.0, 2.765) [0.5, -0.0, 0.5]]",169.11875228033412,"[Element Cs, Element Cd, Element Br, Element Br, Element Br]",False,False,-1.613093705586207,0.03267522699999992,0.6968000000000001
1642,mp,mp-976968.cif,Na1 Pd1 O3,NaPdO3,Pm-3m,3.991149,3.991149,3.991149,90.0,90.0,90.0,"(True, True, True)","[PeriodicSite: Na (0.0, 0.0, 0.0) [0.0, 0.0, 0.0], PeriodicSite: Pd (1.996, 1.996, 1.996) [0.5, 0.5, 0.5], PeriodicSite: O (1.996, 1.996, 0.0) [0.5, 0.5, 0.0], PeriodicSite: O (1.996, 0.0, 1.996) [0.5, 0.0, 0.5], PeriodicSite: O (0.0, 1.996, 1.996) [0.0, 0.5, 0.5]]",63.576091389022885,"[Element Na, Element Pd, Element O, Element O, Element O]",False,True,-0.7727671105603449,0.2644262422499999,0.0
1643,mp,mp-998786.cif,Tl1 Pd1 F3,TlPdF3,P1,4.271329549859519,4.271401243240745,4.27220351660318,89.54619824989642,89.95402998728879,89.78202819132416,"(True, True, True)","[PeriodicSite: Tl (-3.495, -2.437, -6.058) [0.999, 0.9981, 0.9934], PeriodicSite: Pd (-1.764, -1.2, -2.996) [0.5001, 0.4978, 0.4872], PeriodicSite: F (-0.016, 0.02773, -2.978) [7.075e-05, 0.4964, 0.4857], PeriodicSite: F (-0.9044, -2.426, -4.519) [0.5015, 0.4999, 0.9871], PeriodicSite: F (-2.628, 0.0344, -4.51) [0.4993, 0.9978, 0.4865]]",77.94145138407865,"[Element Tl, Element Pd, Element F, Element F, Element F]",True,False,-1.6963438301666667,0.0,0.0
1644,mp,mp-998552.cif,Ba1 Hf1 O3,BaHfO3,P4mm,4.170042392817354,4.169091206921486,4.170376634314528,89.9994643006345,89.99434030651166,89.99884047112508,"(True, True, True)","[PeriodicSite: Ba (-4.167, -4.122, -4.155) [0.9879, 1.0, 0.9964], PeriodicSite: Hf (-2.083, -2.036, -2.076) [0.488, 0.5, 0.4979], PeriodicSite: O (0.001076, -2.037, -2.079) [0.488, 8.2e-06, 0.4989], PeriodicSite: O (-2.084, -4.121, -2.079) [0.988, 0.5, 0.4989], PeriodicSite: O (-2.082, -2.038, -4.162) [0.488, 0.5, 0.9979]]",72.50319461578196,"[Element Ba, Element Hf, Element O, Element O, Element O]",True,False,-3.7874780272500006,0.0,3.5394
1645,mp,mp-20808.cif,Nd3 Pb1 C1,Nd3PbC,Pm-3m,5.88866,5.88866,5.88866,90.0,90.0,90.0,"(True, True, True)","[PeriodicSite: Nd (0.0, 2.944, 2.944) [0.0, 0.5, 0.5], PeriodicSite: Nd (2.944, 2.944, 0.0) [0.5, 0.5, 0.0], PeriodicSite: Nd (2.944, 0.0, 2.944) [0.5, 0.0, 0.5], PeriodicSite: Pb (2.944, 2.944, 2.944) [0.5, 0.5, 0.5], PeriodicSite: C (0.0, 0.0, 0.0) [0.0, 0.0, 0.0]]",204.1970384838459,"[Element Nd, Element Nd, Element Nd, Element Pb, Element C]",False,False,1.5669065959999997,1.9095722910000008,0.0
1646,mp,mp-28872.cif,Rb1 Br1 O3,RbBrO3,R3m,4.466985700020864,4.46698526739264,4.466986082465983,87.66332650735738,87.66333298226867,87.66332228038118,"(True, True, True)","[PeriodicSite: Rb (0.008485, 0.008153, 0.008845) [0.00183, 0.00183, 0.00183], PeriodicSite: Br (2.196, 2.11, 2.289) [0.4734, 0.4734, 0.4734], PeriodicSite: O (0.5528, 2.357, 2.478) [0.1032, 0.5288, 0.5288], PeriodicSite: O (2.453, 2.357, 0.6553) [0.5288, 0.5288, 0.1032], PeriodicSite: O (2.377, 0.4583, 2.478) [0.5288, 0.1032, 0.5288]]",88.91758517584954,"[Element Rb, Element Br, Element O, Element O, Element O]",True,False,-1.07050413475,0.0,3.9953
1647,mp,mp-1395579.cif,Cs1 Tl1 Cl3,CsTlCl3,Cm,5.579954267185799,5.579954267185799,5.579950211959243,89.98883281759421,89.98883281759421,89.99737163566417,"(True, True, True)","[PeriodicSite: Cs (0.0, 7.878, 5.549) [0.9981, 0.9981, 0.9945], PeriodicSite: Tl (0.0, 3.93, 2.716) [0.498, 0.498, 0.4867], PeriodicSite: Cl (-1.991, 5.894, 2.706) [0.4945, 0.9991, 0.4849], PeriodicSite: Cl (0.0, 3.967, 5.504) [0.5025, 0.5025, 0.9864], PeriodicSite: Cl (1.991, 5.894, 2.706) [0.9991, 0.4945, 0.4849]]",173.73670712399237,"[Element Cs, Element Tl, Element Cl, Element Cl, Element Cl]",False,False,-1.6561874782528734,0.02646732700000065,0.0
1648,mp,mp-973960.cif,K1 Sc1 O3,KScO3,Pm-3m,4.210657,4.210657,4.210657,90.0,90.0,90.0,"(True, True, True)","[PeriodicSite: K (0.0, 0.0, 0.0) [0.0, 0.0, 0.0], PeriodicSite: Sc (2.105, 2.105, 2.105) [0.5, 0.5, 0.5], PeriodicSite: O (2.105, 2.105, 0.0) [0.5, 0.5, 0.0], PeriodicSite: O (2.105, 0.0, 2.105) [0.5, 0.0, 0.5], PeriodicSite: O (0.0, 2.105, 2.105) [0.0, 0.5, 0.5]]",74.65340065311048,"[Element K, Element Sc, Element O, Element O, Element O]",False,True,-2.3414604568499997,0.20332155725000067,0.0
1649,mp,mp-29243.cif,Ba3 Sn1 O1,Ba3SnO,Pm-3m,5.50211613,5.50211613,5.50211613,90.0,90.0,90.0,"(True, True, True)","[PeriodicSite: Ba (2.751, 0.0, 2.751) [0.5, 0.0, 0.5], PeriodicSite: Ba (2.751, 2.751, 0.0) [0.5, 0.5, 0.0], PeriodicSite: Ba (0.0, 2.751, 2.751) [0.0, 0.5, 0.5], PeriodicSite: Sn (0.0, 0.0, 0.0) [-0.0, -0.0, -0.0], PeriodicSite: O (2.751, 2.751, 2.751) [0.5, 0.5, 0.5]]",166.567112694078,"[Element Ba, Element Ba, Element Ba, Element Sn, Element O]",True,False,-1.53175960075,0.0,0.0
1650,mp,mp-979294.cif,Sr1 Ag1 O3,SrAgO3,Pm-3m,4.110248,4.110248,4.110248,90.0,90.0,90.0,"(True, True, True)","[PeriodicSite: Sr (0.0, 0.0, 0.0) [0.0, 0.0, 0.0], PeriodicSite: Ag (2.055, 2.055, 2.055) [0.5, 0.5, 0.5], PeriodicSite: O (2.055, 2.055, 0.0) [0.5, 0.5, 0.0], PeriodicSite: O (2.055, 0.0, 2.055) [0.5, 0.0, 0.5], PeriodicSite: O (0.0, 2.055, 2.055) [0.0, 0.5, 0.5]]",69.43909948075958,"[Element Sr, Element Ag, Element O, Element O, Element O]",False,False,-1.3895839059166668,0.11250443000000132,0.0
1651,mp,mp-1227967.cif,Ba1 Ga3 Sn1,BaGa3Sn,I4mm,6.407779704106096,6.407779704106096,6.407779704106096,135.11793671077095,135.11793671077095,65.34700762367181,"(True, True, True)","[PeriodicSite: Ba (0.0, 0.0, 10.77) [0.9982, 0.9982, 0.0], PeriodicSite: Ga (0.0, 0.0, 3.913) [0.3627, 0.3627, 0.0], PeriodicSite: Ga (0.0, 2.446, 2.79) [0.7586, 0.2586, 0.5], PeriodicSite: Ga (2.446, 0.0, 2.79) [0.2586, 0.7586, 0.5], PeriodicSite: Sn (0.0, 0.0, 6.708) [0.6218, 0.6218, 0.0]]",129.08900839283686,"[Element Ba, Element Ga, Element Ga, Element Ga, Element Sn]",False,False,-0.40755602950000025,0.019365479500000227,0.0
1652,mp,mp-20722.cif,Ce1 Fe1 Ge3,CeFeGe3,I4mm,4.337515044491232,4.337514960352105,5.817986843575485,111.88639907809944,111.88639963920257,90.00001103166343,"(True, True, True)","[PeriodicSite: Ce (1.092, 1.282, 2.735) [0.3249, 0.3249, 0.6497], PeriodicSite: Fe (3.379, 3.968, 2.616) [1.002, 1.002, 1.003], PeriodicSite: Ge (2.318, 0.3567, -0.04314) [0.5904, 0.09037, 0.1807], PeriodicSite: Ge (2.605, 3.059, 0.675) [0.7712, 0.7712, 0.5423], PeriodicSite: Ge (-0.01722, 2.345, -0.04314) [0.09037, 0.5904, 0.1807]]",93.01435651421247,"[Element Ce, Element Fe, Element Ge, Element Ge, Element Ge]",True,True,-0.5052271380000001,0.0,0.0
1653,mp,mp-19840.cif,Gd1 B1 Rh3,GdBRh3,Pm-3m,4.19646217,4.19646627,4.19648879,90.0,90.0,90.0,"(True, True, True)","[PeriodicSite: Gd (0.0, 0.0, 0.0) [0.0, 0.0, -0.0], PeriodicSite: B (2.098, 2.098, 2.098) [0.5, 0.5, 0.5], PeriodicSite: Rh (0.0, 2.098, 2.098) [-0.0, 0.5, 0.5], PeriodicSite: Rh (2.098, 2.098, 0.0) [0.5, 0.5, -0.0], PeriodicSite: Rh (2.098, 0.0, 2.098) [0.5, -0.0, 0.5]]",73.9014766854702,"[Element Gd, Element B, Element Rh, Element Rh, Element Rh]",True,True,-0.7559659618333328,0.0,0.0
1654,mp,mp-29677.cif,Ho3 Al1 C1,Ho3AlC,Pm-3m,4.83811738,4.83811738,4.83811738,90.0,90.0,90.0,"(True, True, True)","[PeriodicSite: Ho (0.0, 2.419, 2.419) [0.0, 0.5, 0.5], PeriodicSite: Ho (2.419, 0.0, 2.419) [0.5, 0.0, 0.5], PeriodicSite: Ho (2.419, 2.419, 0.0) [0.5, 0.5, 0.0], PeriodicSite: Al (0.0, 0.0, 0.0) [-0.0, -0.0, -0.0], PeriodicSite: C (2.419, 2.419, 2.419) [0.5, 0.5, 0.5]]",113.2476509467386,"[Element Ho, Element Ho, Element Ho, Element Al, Element C]",True,False,-0.41013936550000024,0.0,0.01739999999999986
1655,mp,mp-1399321.cif,Cs1 Ag1 Br3,CsAgBr3,Pm,5.497825,5.494482,5.494832419031176,89.94623728987666,90.0,90.0,"(True, True, True)","[PeriodicSite: Cs (0.0, 5.486, 0.03291) [0.0, 0.9985, 0.005989], PeriodicSite: Ag (2.749, 2.776, 2.831) [0.5, 0.5047, 0.5153], PeriodicSite: Br (0.0, 2.779, 2.819) [0.0, 0.5053, 0.513], PeriodicSite: Br (2.749, 2.731, 0.08325) [0.5, 0.497, 0.01515], PeriodicSite: Br (2.749, 0.02732, 2.805) [0.5, 0.004494, 0.5106]]",165.98617894748145,"[Element Cs, Element Ag, Element Br, Element Br, Element Br]",True,False,-1.2920081269195403,0.0,0.0
1656,mp,mp-1239192.cif,La1 Ta1 O3,LaTaO3,Pm-3m,4.073013,4.073013,4.073013,90.0,90.0,90.0,"(True, True, True)","[PeriodicSite: La (2.037, 2.037, 2.037) [0.5, 0.5, 0.5], PeriodicSite: Ta (0.0, 0.0, 0.0) [0.0, 0.0, 0.0], PeriodicSite: O (0.0, 2.037, 0.0) [0.0, 0.5, 0.0], PeriodicSite: O (0.0, 0.0, 2.037) [0.0, 0.0, 0.5], PeriodicSite: O (2.037, 0.0, 0.0) [0.5, 0.0, 0.0]]",67.56898400289603,"[Element La, Element Ta, Element O, Element O, Element O]",False,False,-3.1315984122500007,0.3356782171999999,0.0
1657,mp,mp-974511.cif,Re1 Sb1 O3,ReSbO3,Pm-3m,3.990574,3.990574,3.990574,90.0,90.0,90.0,"(True, True, True)","[PeriodicSite: Re (1.995, 1.995, 1.995) [0.5, 0.5, 0.5], PeriodicSite: Sb (0.0, 0.0, 0.0) [0.0, 0.0, 0.0], PeriodicSite: O (1.995, 1.995, 0.0) [0.5, 0.5, 0.0], PeriodicSite: O (1.995, 0.0, 1.995) [0.5, 0.0, 0.5], PeriodicSite: O (0.0, 1.995, 1.995) [0.0, 0.5, 0.5]]",63.548617356216845,"[Element Re, Element Sb, Element O, Element O, Element O]",False,False,-1.1348507322499999,0.603808143666666,0.0
1658,mp,mp-998365.cif,Ni1 Ag1 F3,NiAgF3,Pm-3m,4.003954,4.003954,4.003954,90.0,90.0,90.0,"(True, True, True)","[PeriodicSite: Ni (0.0, 0.0, 0.0) [0.0, 0.0, 0.0], PeriodicSite: Ag (2.002, 2.002, 2.002) [0.5, 0.5, 0.5], PeriodicSite: F (2.002, 0.0, 0.0) [0.5, 0.0, 0.0], PeriodicSite: F (0.0, 2.002, 0.0) [0.0, 0.5, 0.0], PeriodicSite: F (0.0, 0.0, 2.002) [0.0, 0.0, 0.5]]",64.1899796712093,"[Element Ni, Element Ag, Element F, Element F, Element F]",False,True,-1.8334968648333336,0.05172965800000373,0.0
1659,mp,mp-5986.cif,Ba1 Ti1 O3,BaTiO3,P4mm,3.99037921,3.99037921,4.10265539,90.0,90.0,90.0,"(True, True, True)","[PeriodicSite: Ba (1.995, 1.995, 2.39) [0.5, 0.5, 0.5825], PeriodicSite: Ti (0.0, 0.0, 0.4104) [-0.0, -0.0, 0.1], PeriodicSite: O (0.0, 1.995, 0.2635) [-0.0, 0.5, 0.06422], PeriodicSite: O (1.995, 0.0, 0.2635) [0.5, -0.0, 0.06422], PeriodicSite: O (0.0, 0.0, 2.252) [0.0, 0.0, 0.549]]",65.32709969254628,"[Element Ba, Element Ti, Element O, Element O, Element O]",False,False,-3.4897929879166663,0.00320737600000065,1.7279999999999998
1660,mp,mp-1434307.cif,Y1 Mn1 O3,YMnO3,Pm-3m,3.872255,3.872255,3.872255,90.0,90.0,90.0,"(True, True, True)","[PeriodicSite: Y (0.0, 0.0, 0.0) [0.0, 0.0, 0.0], PeriodicSite: Mn (1.936, 1.936, 1.936) [0.5, 0.5, 0.5], PeriodicSite: O (1.936, 1.936, 0.0) [0.5, 0.5, 0.0], PeriodicSite: O (1.936, 0.0, 1.936) [0.5, 0.0, 0.5], PeriodicSite: O (0.0, 1.936, 1.936) [0.0, 0.5, 0.5]]",58.06198077710698,"[Element Y, Element Mn, Element O, Element O, Element O]",False,True,-2.7117187221695405,0.3250519833333332,0.0