,provider,id,Full_Formula,formula,space_group,a_lattice_param,b_lattice_param,c_lattice_param,aplha_degree,beta_degree,gamma_degree,pbc,sits,volume,species_at_sites,is_stable,is_magnetic,formation_energy,energy_above_hull,band_gap
1154,mp,mp-9960.cif,Y3 Tl1 C1,Y3TlC,Pm-3m,4.90973176,4.90973176,4.90973176,90.0,90.0,90.0,"(True, True, True)","[PeriodicSite: Y (0.0, 2.455, 2.455) [-0.0, 0.5, 0.5], PeriodicSite: Y (2.455, 2.455, 0.0) [0.5, 0.5, -0.0], PeriodicSite: Y (2.455, 0.0, 2.455) [0.5, -0.0, 0.5], PeriodicSite: Tl (0.0, 0.0, 0.0) [0.0, 0.0, 0.0], PeriodicSite: C (2.455, 2.455, 2.455) [0.5, 0.5, 0.5]]",118.35137178961192,"[Element Y, Element Y, Element Y, Element Tl, Element C]",True,False,-0.48933250416666707,0.0,0.0
1155,mp,mp-13123.cif,La1 Ge3 Rh1,LaGe3Rh,I4mm,4.432189988406295,4.432189992008385,5.942181116799811,111.87258945416403,111.87259064751194,89.99589558705077,"(True, True, True)","[PeriodicSite: La (1.995, 2.349, -0.9795) [0.5787, 0.5787, 0.1575], PeriodicSite: Ge (3.237, 1.392, 2.105) [0.8419, 0.342, 0.6839], PeriodicSite: Ge (0.8487, 3.42, 2.105) [0.342, 0.8419, 0.6839], PeriodicSite: Ge (0.001483, 0.001746, 0.003572) [0.0004291, 0.0004291, 0.00084], PeriodicSite: Rh (0.8259, 0.9727, 2.048) [0.239, 0.239, 0.4778]]",99.21654931768019,"[Element La, Element Ge, Element Ge, Element Ge, Element Rh]",True,False,-0.7616580580000004,0.0,0.0
1156,mp,mp-1228852.cif,Al1 Ni3 Sb1,AlNi3Sb,P-6m2,4.119012787937056,4.119012787937056,4.938456,90.0,90.0,119.99111412449864,"(True, True, True)","[PeriodicSite: Al (-2.06, -1.189, -1.235) [0.6667, 0.3333, 0.25], PeriodicSite: Ni (-2.06, 3.567, -2.441) [5e-06, 1.0, 0.4943], PeriodicSite: Ni (-2.06, 3.567, -0.02834) [5e-06, 1.0, 0.005738], PeriodicSite: Ni (-2.06, -1.189, -3.704) [0.6667, 0.3333, 0.75], PeriodicSite: Sb (-2.06, 1.189, -3.704) [0.3333, 0.6667, 0.75]]",72.56830524210673,"[Element Al, Element Ni, Element Ni, Element Ni, Element Sb]",False,False,-0.25803314999999927,0.2018214444999984,0.0
1157,mp,mp-1504764.cif,Y1 V1 O3,YVO3,P4/mmm,3.863003,3.863003,3.995935,90.0,90.0,90.0,"(True, True, True)","[PeriodicSite: Y (0.0, 0.0, 0.0) [0.0, 0.0, 0.0], PeriodicSite: V (1.932, 1.932, 1.998) [0.5, 0.5, 0.5], PeriodicSite: O (0.0, 1.932, 1.998) [0.0, 0.5, 0.5], PeriodicSite: O (1.932, 0.0, 1.998) [0.5, 0.0, 0.5], PeriodicSite: O (1.932, 1.932, 0.0) [0.5, 0.5, 0.0]]",59.63050756183239,"[Element Y, Element V, Element O, Element O, Element O]",False,True,-2.9216734925833334,0.35329186500000276,0.0
1158,mp,mp-781625.cif,Ba1 Os1 O3,BaOsO3,Pm-3m,4.06423,4.06423,4.06423,90.0,90.0,90.0,"(True, True, True)","[PeriodicSite: Ba (0.0, 0.0, 0.0) [0.0, 0.0, 0.0], PeriodicSite: Os (2.032, 2.032, 2.032) [0.5, 0.5, 0.5], PeriodicSite: O (0.0, 2.032, 2.032) [0.0, 0.5, 0.5], PeriodicSite: O (2.032, 0.0, 2.032) [0.5, 0.0, 0.5], PeriodicSite: O (2.032, 2.032, 0.0) [0.5, 0.5, 0.0]]",67.13281089520898,"[Element Ba, Element Os, Element O, Element O, Element O]",False,True,-2.03981065725,0.08043483299999998,0.0
1159,mp,mp-9834.cif,Nd1 Ga1 O3,NdGaO3,Pm-3m,4.563814,4.563814,4.563814,90.0,90.0,90.0,"(True, True, True)","[PeriodicSite: Nd (2.282, 2.282, 2.282) [0.5, 0.5, 0.5], PeriodicSite: Ga (0.0, 0.0, 0.0) [0.0, 0.0, 0.0], PeriodicSite: O (0.0, 2.282, 2.282) [0.0, 0.5, 0.5], PeriodicSite: O (2.282, 0.0, 2.282) [0.5, 0.0, 0.5], PeriodicSite: O (2.282, 2.282, 0.0) [0.5, 0.5, 0.0]]",95.05693542411397,"[Element Nd, Element Ga, Element O, Element O, Element O]",False,True,-1.6218260762499994,1.4662541728333318,0.0
1160,mp,mp-998235.cif,Cs1 Tl1 F3,CsTlF3,Amm2,4.796435357453909,4.796435357453909,4.796722,90.0,90.0,90.15156831621155,"(True, True, True)","[PeriodicSite: Cs (3.387, 3.367, 2.398) [0.004273, 0.9957, 0.5], PeriodicSite: Tl (3.387, -0.01929, 0.0) [0.5028, 0.4972, 0.0], PeriodicSite: F (5.093, 1.668, 0.0) [0.5063, 0.9974, 0.0], PeriodicSite: F (3.387, 0.02947, 2.398) [0.4957, 0.5043, 0.5], PeriodicSite: F (1.681, 1.668, 0.0) [0.002586, 0.4937, 0.0]]",110.35200315619933,"[Element Cs, Element Tl, Element F, Element F, Element F]",False,False,-2.452634499752873,0.06426403599999997,0.0
1161,mp,mp-30055.cif,Rb3 Br1 O1,Rb3BrO,Pm-3m,5.47741978,5.47741978,5.47741978,90.0,90.0,90.0,"(True, True, True)","[PeriodicSite: Rb (2.739, 0.0, 2.739) [0.5, -0.0, 0.5], PeriodicSite: Rb (2.739, 2.739, 0.0) [0.5, 0.5, -0.0], PeriodicSite: Rb (0.0, 2.739, 2.739) [-0.0, 0.5, 0.5], PeriodicSite: Br (0.0, 0.0, 0.0) [0.0, 0.0, 0.0], PeriodicSite: O (2.739, 2.739, 2.739) [0.5, 0.5, 0.5]]",164.33424631663758,"[Element Rb, Element Rb, Element Rb, Element Br, Element O]",False,False,-1.51744370225,0.0027945930000008445,0.3851
1162,mp,mp-21017.cif,Y3 Pb1 C1,Y3PbC,Pm-3m,4.9095349,4.9095349,4.9095349,90.0,90.0,90.0,"(True, True, True)","[PeriodicSite: Y (2.455, 0.0, 2.455) [0.5, -0.0, 0.5], PeriodicSite: Y (0.0, 2.455, 2.455) [-0.0, 0.5, 0.5], PeriodicSite: Y (2.455, 2.455, 0.0) [0.5, 0.5, -0.0], PeriodicSite: Pb (0.0, 0.0, 0.0) [0.0, -0.0, 0.0], PeriodicSite: C (2.455, 2.455, 2.455) [0.5, 0.5, 0.5]]",118.33713615433366,"[Element Y, Element Y, Element Y, Element Pb, Element C]",True,False,-0.5700360695000001,0.0,0.0
1163,mp,mp-20273.cif,Ca3 Pb1 O1,Ca3PbO,Pm-3m,4.84593119,4.84593119,4.84593119,90.0,90.0,90.0,"(True, True, True)","[PeriodicSite: Ca (2.423, 0.0, 2.423) [0.5, 0.0, 0.5], PeriodicSite: Ca (0.0, 2.423, 2.423) [0.0, 0.5, 0.5], PeriodicSite: Ca (2.423, 2.423, 0.0) [0.5, 0.5, 0.0], PeriodicSite: Pb (0.0, 0.0, 0.0) [0.0, 0.0, 0.0], PeriodicSite: O (2.423, 2.423, 2.423) [0.5, 0.5, 0.5]]",113.79724006134056,"[Element Ca, Element Ca, Element Ca, Element Pb, Element O]",True,False,-1.6895670957499995,0.0,0.0
1164,mp,mp-998194.cif,Rb1 In1 Br3,RbInBr3,Cm,5.735617186251711,5.735617186251711,5.7337136802348265,89.92559991595589,89.92559991595589,90.07227498953199,"(True, True, True)","[PeriodicSite: Rb (0.0, 8.099, 0.008142) [0.9991, 0.9991, 0.00142], PeriodicSite: In (0.0, 4.023, 2.964) [0.4956, 0.4956, 0.5169], PeriodicSite: Br (2.045, 6.065, 2.951) [0.9994, 0.4956, 0.5146], PeriodicSite: Br (0.0, 4.1, 0.08882) [0.5058, 0.5058, 0.01549], PeriodicSite: Br (-2.045, 6.065, 2.951) [0.4956, 0.9994, 0.5146]]",188.62325637145042,"[Element Rb, Element In, Element Br, Element Br, Element Br]",False,False,-1.5347605674999998,0.04132633350000159,0.0
1165,mp,mp-998350.cif,Ba1 Zr1 Se3,BaZrSe3,P1,5.287383,5.296393207215643,5.3094774709814905,89.8914470345269,89.91420970899256,89.96131523565384,"(True, True, True)","[PeriodicSite: Ba (5.292, 5.298, 5.302) [0.9986, 0.9985, 0.9987], PeriodicSite: Zr (2.525, 2.6, 2.531) [0.4766, 0.4901, 0.4767], PeriodicSite: Se (2.589, 5.294, 2.669) [0.4883, 0.9985, 0.5027], PeriodicSite: Se (5.208, 2.715, 2.753) [0.9838, 0.5116, 0.5185], PeriodicSite: Se (2.614, 2.665, 5.274) [0.4926, 0.5013, 0.9934]]",148.68645536701626,"[Element Ba, Element Zr, Element Se, Element Se, Element Se]",False,False,-1.8429590454062499,0.0775039105000026,0.2023999999999999
1166,mp,mp-20388.cif,Pr3 Pb1 C1,Pr3PbC,Pm-3m,5.930013,5.930013,5.930013,90.0,90.0,90.0,"(True, True, True)","[PeriodicSite: Pr (0.0, 2.965, 2.965) [0.0, 0.5, 0.5], PeriodicSite: Pr (2.965, 2.965, 0.0) [0.5, 0.5, 0.0], PeriodicSite: Pr (2.965, 0.0, 2.965) [0.5, 0.0, 0.5], PeriodicSite: Pb (2.965, 2.965, 2.965) [0.5, 0.5, 0.5], PeriodicSite: C (0.0, 0.0, 0.0) [0.0, 0.0, 0.0]]",208.52922843410647,"[Element Pr, Element Pr, Element Pr, Element Pb, Element C]",False,False,1.5598886575000002,1.8858387993333343,0.0
1167,mp,mp-19973.cif,La1 Co1 Ge3,LaCoGe3,I4mm,4.3388155895886324,4.338814936452057,5.797683737344884,111.97397123426745,111.97397482523188,89.9999992802036,"(True, True, True)","[PeriodicSite: La (1.141, 1.344, 2.829) [0.3388, 0.3388, 0.6776], PeriodicSite: Co (0.01318, 0.01553, 0.03268) [0.003913, 0.003913, 0.007827], PeriodicSite: Ge (2.339, 0.385, -0.001442) [0.597, 0.09702, 0.194], PeriodicSite: Ge (2.598, 3.061, 0.6409) [0.7711, 0.7711, 0.5423], PeriodicSite: Ge (-0.0005772, 2.37, -0.001442) [0.09702, 0.597, 0.194]]",92.60921960277798,"[Element La, Element Co, Element Ge, Element Ge, Element Ge]",True,False,-0.6177145629999998,0.0,0.0
1168,mp,mp-13121.cif,Ce1 Ge3 Rh1,CeGe3Rh,I4mm,5.91268708370387,5.91268708370387,5.91268708370387,136.2746128417177,136.2746128417177,63.556064045133645,"(True, True, True)","[PeriodicSite: Ce (0.0, 0.0, 4.244) [0.4222, 0.4222, 0.0], PeriodicSite: Ge (2.202, 2.22e-16, 1.588) [0.158, 0.658, 0.5], PeriodicSite: Ge (2.22e-16, 2.202, 1.588) [0.658, 0.158, 0.5], PeriodicSite: Ge (0.0, 0.0, 10.05) [0.9993, 0.9993, -0.0], PeriodicSite: Rh (0.0, 0.0, 7.653) [0.7613, 0.7613, -0.0]]",97.46821144591433,"[Element Ce, Element Ge, Element Ge, Element Ge, Element Rh]",True,True,-0.6888754779999993,0.0,0.0
1169,mp,mp-4505.cif,La3 Al1 N1,La3AlN,Pm-3m,5.09751599,5.09752329,5.09751495,90.0,90.0,90.0,"(True, True, True)","[PeriodicSite: La (2.549, 2.549, 0.0) [0.5, 0.5, -0.0], PeriodicSite: La (0.0, 2.549, 2.549) [-0.0, 0.5, 0.5], PeriodicSite: La (2.549, 0.0, 2.549) [0.5, 0.0, 0.5], PeriodicSite: Al (0.0, 0.0, 0.0) [0.0, -0.0, -0.0], PeriodicSite: N (2.549, 2.549, 2.549) [0.5, 0.5, 0.5]]",132.4574297540407,"[Element La, Element La, Element La, Element Al, Element N]",True,False,-0.8344309640000006,0.0,0.0
1170,mp,mp-975216.cif,Rb1 Re1 O3,RbReO3,Pm-3m,3.984062,3.984062,3.984062,90.0,90.0,90.0,"(True, True, True)","[PeriodicSite: Rb (0.0, 0.0, 0.0) [0.0, 0.0, 0.0], PeriodicSite: Re (1.992, 1.992, 1.992) [0.5, 0.5, 0.5], PeriodicSite: O (1.992, 1.992, 0.0) [0.5, 0.5, 0.0], PeriodicSite: O (1.992, 0.0, 1.992) [0.5, 0.0, 0.5], PeriodicSite: O (0.0, 1.992, 1.992) [0.0, 0.5, 0.5]]",63.238020189559734,"[Element Rb, Element Re, Element O, Element O, Element O]",False,False,-1.9747094377500005,0.1466208092352952,0.0
1171,mp,mp-756315.cif,Eu1 V1 O3,EuVO3,Pm-3m,3.8467932285818,3.851362766432599,3.8469746388457544,90.03596076510553,90.11370437313616,90.0371796089971,"(True, True, True)","[PeriodicSite: Eu (3.846, 3.85, -0.004885) [1.0, 1.0, 2.554e-05], PeriodicSite: V (1.921, 1.924, 1.921) [0.5, 0.5, 0.5], PeriodicSite: O (-0.002503, 1.925, 1.923) [2.78e-06, 0.5, 0.5], PeriodicSite: O (1.922, -0.001267, 1.922) [0.5, 9.2e-07, 0.5], PeriodicSite: O (1.919, 1.924, 3.844) [0.5, 0.5, 1.0]]",56.99431798498433,"[Element Eu, Element V, Element O, Element O, Element O]",False,True,-2.9365350172500015,0.031109104500000484,0.0
1172,mp,mp-998525.cif,Ca1 Tc1 O3,CaTcO3,Cm,3.9378651473966193,3.9378651473966193,3.9387099067407845,89.86167546271822,89.86167546271822,89.87528429088545,"(True, True, True)","[PeriodicSite: Ca (0.0, 5.561, 3.932) [0.9951, 0.9951, 0.9983], PeriodicSite: Tc (0.0, 2.784, 1.917) [0.4982, 0.4982, 0.4868], PeriodicSite: O (-1.394, 4.175, 1.904) [0.497, 0.9984, 0.4834], PeriodicSite: O (0.0, 2.805, 3.885) [0.5008, 0.5008, 0.9863], PeriodicSite: O (1.394, 4.175, 1.904) [0.9984, 0.497, 0.4834]]",61.07621566601265,"[Element Ca, Element Tc, Element O, Element O, Element O]",False,False,-2.36692780025,0.10895189449999965,0.0
1173,mp,mp-560399.cif,Na1 Mg1 F3,NaMgF3,Pm-3m,3.950839,3.950839,3.950839,90.0,90.0,90.0,"(True, True, True)","[PeriodicSite: Na (0.0, 0.0, 0.0) [0.0, 0.0, 0.0], PeriodicSite: Mg (1.975, 1.975, 1.975) [0.5, 0.5, 0.5], PeriodicSite: F (1.975, 1.975, 0.0) [0.5, 0.5, 0.0], PeriodicSite: F (1.975, 0.0, 1.975) [0.5, 0.0, 0.5], PeriodicSite: F (0.0, 1.975, 1.975) [0.0, 0.5, 0.5]]",61.66915483455445,"[Element Na, Element Mg, Element F, Element F, Element F]",False,False,-3.458269922810345,0.0416478025,5.926200000000001
1174,mp,mp-4563.cif,Ti3 Tl1 C1,Ti3TlC,Pm-3m,4.24420109,4.24421542,4.24420006,90.0,90.0,90.0,"(True, True, True)","[PeriodicSite: Ti (0.0, 2.122, 2.122) [-0.0, 0.5, 0.5], PeriodicSite: Ti (2.122, 2.122, 0.0) [0.5, 0.5, -0.0], PeriodicSite: Ti (2.122, 0.0, 2.122) [0.5, 0.0, 0.5], PeriodicSite: Tl (0.0, 0.0, 0.0) [-0.0, -0.0, 0.0], PeriodicSite: C (2.122, 2.122, 2.122) [0.5, 0.5, 0.5]]",76.45206469424494,"[Element Ti, Element Ti, Element Ti, Element Tl, Element C]",False,False,-0.4411392421666676,0.01758336833333285,0.0
1175,mp,mp-9060.cif,Rb1 Pd1 F3,RbPdF3,Pm-3m,4.345685,4.345685,4.345685,90.0,90.0,90.0,"(True, True, True)","[PeriodicSite: Rb (2.173, 2.173, 2.173) [0.5, 0.5, 0.5], PeriodicSite: Pd (0.0, 0.0, 0.0) [0.0, 0.0, 0.0], PeriodicSite: F (0.0, 2.173, 0.0) [0.0, 0.5, 0.0], PeriodicSite: F (0.0, 0.0, 2.173) [0.0, 0.0, 0.5], PeriodicSite: F (2.173, 0.0, 0.0) [0.5, 0.0, 0.0]]",82.06816613804428,"[Element Rb, Element Pd, Element F, Element F, Element F]",False,False,-2.119219071,0.04347006499999928,0.0
1176,mp,mp-998241.cif,Mn1 In1 F3,MnInF3,P1,4.309147,4.311111222307423,4.313221070510182,89.79987100383251,89.52549878493261,89.92994703372652,"(True, True, True)","[PeriodicSite: Mn (2.121, 2.157, 2.135) [0.4875, 0.4985, 0.4949], PeriodicSite: In (4.333, 4.311, 4.273) [0.996, 0.9965, 0.9906], PeriodicSite: F (2.103, 4.315, 2.153) [0.4828, 0.9993, 0.4993], PeriodicSite: F (4.272, 2.187, 2.194) [0.9866, 0.5056, 0.5086], PeriodicSite: F (2.137, 2.171, 4.298) [0.4871, 0.5002, 0.9966]]",80.12432855464112,"[Element Mn, Element In, Element F, Element F, Element F]",False,True,-2.5056638770862074,0.03122978066666615,2.4764999999999997
1177,mp,mp-573180.cif,La1 Co1 O3,LaCoO3,Pm-3m,3.816817,3.816817,3.816817,90.0,90.0,90.0,"(True, True, True)","[PeriodicSite: La (1.908, 1.908, 1.908) [0.5, 0.5, 0.5], PeriodicSite: Co (0.0, 0.0, 0.0) [0.0, 0.0, 0.0], PeriodicSite: O (1.908, 0.0, 0.0) [0.5, 0.0, 0.0], PeriodicSite: O (0.0, 1.908, 0.0) [0.0, 0.5, 0.0], PeriodicSite: O (0.0, 0.0, 1.908) [0.0, 0.0, 0.5]]",55.60374124701541,"[Element La, Element Co, Element O, Element O, Element O]",False,False,-2.52916055325,0.07654874600000028,0.4388000000000005
1178,mp,mp-2976.cif,Pr1 B1 Pd3,PrBPd3,Pm-3m,4.397572,4.397572,4.397572,90.0,90.0,90.0,"(True, True, True)","[PeriodicSite: Pr (0.0, 0.0, 0.0) [0.0, 0.0, 0.0], PeriodicSite: B (2.199, 2.199, 2.199) [0.5, 0.5, 0.5], PeriodicSite: Pd (0.0, 2.199, 2.199) [0.0, 0.5, 0.5], PeriodicSite: Pd (2.199, 2.199, 0.0) [0.5, 0.5, 0.0], PeriodicSite: Pd (2.199, 0.0, 2.199) [0.5, 0.0, 0.5]]",85.0430595621153,"[Element Pr, Element B, Element Pd, Element Pd, Element Pd]",False,False,-0.539530774833333,0.11091275293333247,0.0
1179,mp,mp-973818.cif,Li1 Ho1 O3,LiHoO3,Pm-3m,3.66306,3.66306,3.66306,90.0,90.0,90.0,"(True, True, True)","[PeriodicSite: Li (0.0, 0.0, 0.0) [0.0, 0.0, 0.0], PeriodicSite: Ho (1.832, 1.832, 1.832) [0.5, 0.5, 0.5], PeriodicSite: O (0.0, 0.0, 1.832) [0.0, 0.0, 0.5], PeriodicSite: O (0.0, 1.832, 0.0) [0.0, 0.5, 0.0], PeriodicSite: O (1.832, 0.0, 0.0) [0.5, 0.0, 0.0]]",49.15097044898062,"[Element Li, Element Ho, Element O, Element O, Element O]",False,True,-2.248339435916667,0.4370870380892864,0.0
1180,mp,mp-29738.cif,Tl1 Cl1 O3,TlClO3,R3m,4.574928330334804,4.574927649682124,4.574928330334804,83.89769318868409,83.8976934639343,83.89769318868409,"(True, True, True)","[PeriodicSite: Tl (7.454, 0.0, 4.525) [0.9993, 0.9993, 0.9993], PeriodicSite: Cl (3.813, 0.0, 2.315) [0.5112, 0.5112, 0.5112], PeriodicSite: O (4.664, 1.214, 2.011) [0.841, 0.4442, 0.4442], PeriodicSite: O (4.664, -1.214, 2.011) [0.4442, 0.4442, 0.841], PeriodicSite: O (3.573, 0.0, 3.808) [0.4442, 0.841, 0.4442]]",94.23296052646893,"[Element Tl, Element Cl, Element O, Element O, Element O]",False,False,-0.7225996739166668,0.061993026555555275,4.3481
1181,mp,mp-1226621.cif,Ce1 Ga3 Ag1,CeGa3Ag,I-4m2,4.345808,4.345808,6.2238124717160295,69.566042463977,69.566042463977,90.0,"(True, True, True)","[PeriodicSite: Ce (0.0, 0.0, 0.0) [0.0, 0.0, 0.0], PeriodicSite: Ga (2.173, 2.173, 1.226) [0.3867, 0.3867, 0.2266], PeriodicSite: Ga (4.346, 4.346, 4.186) [0.6133, 0.6133, 0.7734], PeriodicSite: Ga (2.173, 4.346, 2.706) [0.25, 0.75, 0.5], PeriodicSite: Ag (4.346, 2.173, 2.706) [0.75, 0.25, 0.5]]",102.21665093693706,"[Element Ce, Element Ga, Element Ga, Element Ga, Element Ag]",False,True,-0.42217717083333284,0.021123603666662216,0.0
1182,mp,mp-22004.cif,Yb3 Tl1 C1,Yb3TlC,Pm-3m,5.962849,5.962849,5.962849,90.0,90.0,90.0,"(True, True, True)","[PeriodicSite: Yb (0.0, 2.981, 2.981) [0.0, 0.5, 0.5], PeriodicSite: Yb (2.981, 2.981, 0.0) [0.5, 0.5, 0.0], PeriodicSite: Yb (2.981, 0.0, 2.981) [0.5, 0.0, 0.5], PeriodicSite: Tl (2.981, 2.981, 2.981) [0.5, 0.5, 0.5], PeriodicSite: C (0.0, 0.0, 0.0) [0.0, 0.0, 0.0]]",212.0124842667267,"[Element Yb, Element Yb, Element Yb, Element Tl, Element C]",False,True,1.206241931833333,1.4613461490666673,0.0
1183,mp,mp-2371810.cif,V1 Cu1 O3,VCuO3,Cm,3.196335643246901,5.006966690982692,5.824767971894177,114.2743665819355,105.95828023174359,90.00423084725624,"(True, True, True)","[PeriodicSite: V (-2.174, -1.403, 0.522) [0.7351, 0.3372, 0.1226], PeriodicSite: Cu (-0.6244, -3.993, 2.038) [0.3931, 0.9898, 0.4375], PeriodicSite: O (-2.183, -0.02862, 1.568) [0.8329, 0.1476, 0.3178], PeriodicSite: O (-0.6173, 1.303, 4.122) [0.5759, 0.09115, 0.8048], PeriodicSite: O (-0.5894, -2.314, 0.8815) [0.2716, 0.5486, 0.1953]]",81.01951592977308,"[Element V, Element Cu, Element O, Element O, Element O]",False,False,-1.7971014472500002,0.06894532499999872,0.9259999999999999
1184,mp,mp-3136.cif,Na1 Nb1 O3,NaNbO3,Pm-3m,4.009335,4.009335,4.009335,90.0,90.0,90.0,"(True, True, True)","[PeriodicSite: Na (0.0, 0.0, 0.0) [0.0, 0.0, 0.0], PeriodicSite: Nb (2.005, 2.005, 2.005) [0.5, 0.5, 0.5], PeriodicSite: O (2.005, 2.005, 0.0) [0.5, 0.5, 0.0], PeriodicSite: O (0.0, 2.005, 2.005) [0.0, 0.5, 0.5], PeriodicSite: O (2.005, 0.0, 2.005) [0.5, 0.0, 0.5]]",64.44912652017267,"[Element Na, Element Nb, Element O, Element O, Element O]",False,False,-2.8050862145603452,0.04119709399999927,1.5249
1185,mp,mp-23011.cif,Rb1 Cl1 O3,RbClO3,R3m,4.597086472117965,4.597086472117965,4.597086451235174,83.96766269648619,83.96766269648619,83.96766038572098,"(True, True, True)","[PeriodicSite: Rb (7.296, 0.0, 4.436) [0.9748, 0.9748, 0.9748], PeriodicSite: Cl (3.658, 0.0, 2.224) [0.4887, 0.4887, 0.4887], PeriodicSite: O (4.506, -1.211, 1.922) [0.816, 0.4223, 0.4223], PeriodicSite: O (3.416, 0.0, 3.713) [0.4223, 0.4223, 0.816], PeriodicSite: O (4.506, 1.211, 1.922) [0.4223, 0.816, 0.4223]]",95.64282469113215,"[Element Rb, Element Cl, Element O, Element O, Element O]",False,False,-1.1450334247500003,0.0651711139999982,5.3288
1186,mp,mp-12631.cif,Sr1 Tc1 O3,SrTcO3,Pm-3m,3.96238547,3.96239136,3.96240069,90.0,90.0,90.0,"(True, True, True)","[PeriodicSite: Sr (0.0, 0.0, 0.0) [0.0, -0.0, -0.0], PeriodicSite: Tc (1.981, 1.981, 1.981) [0.5, 0.5, 0.5], PeriodicSite: O (1.981, 0.0, 1.981) [0.5, -0.0, 0.5], PeriodicSite: O (1.981, 1.981, 0.0) [0.5, 0.5, 0.0], PeriodicSite: O (0.0, 1.981, 1.981) [0.0, 0.5, 0.5]]",62.21175901326076,"[Element Sr, Element Tc, Element O, Element O, Element O]",False,True,-2.4542048095833335,0.0021140334999998345,0.0
1187,mp,mp-19758.cif,Sm3 Pb1 C1,Sm3PbC,Pm-3m,5.80783,5.80783,5.80783,90.0,90.0,90.0,"(True, True, True)","[PeriodicSite: Sm (0.0, 2.904, 2.904) [0.0, 0.5, 0.5], PeriodicSite: Sm (2.904, 2.904, 0.0) [0.5, 0.5, 0.0], PeriodicSite: Sm (2.904, 0.0, 2.904) [0.5, 0.0, 0.5], PeriodicSite: Pb (2.904, 2.904, 2.904) [0.5, 0.5, 0.5], PeriodicSite: C (0.0, 0.0, 0.0) [0.0, 0.0, 0.0]]",195.9032708549087,"[Element Sm, Element Sm, Element Sm, Element Pb, Element C]",False,False,1.5812073374999998,1.9556142914999972,0.0
1188,mp,mp-551451.cif,Fe1 Bi1 O3,FeBiO3,P1,5.430644,5.458528411681669,5.524043330056888,66.90638248766574,67.50512893589979,65.21539056092885,"(True, True, True)","[PeriodicSite: Fe (2.7, 1.755, 1.39) [0.2718, 0.2735, 0.2833], PeriodicSite: Bi (0.1565, 0.2089, 0.05211) [0.008204, 0.03912, 0.01063], PeriodicSite: O (1.734, 1.746, 2.938) [0.009684, 0.1818, 0.5989], PeriodicSite: O (3.688, 0.2855, 0.9214) [0.6043, 0.004128, 0.1879], PeriodicSite: O (2.674, 3.097, 0.1634) [0.2201, 0.6154, 0.03331]]",132.00542267882287,"[Element Fe, Element Bi, Element O, Element O, Element O]",False,True,-1.247154579250001,0.4379271169999983,1.6259000000000001