,provider,id,Full_Formula,formula,space_group,a_lattice_param,b_lattice_param,c_lattice_param,aplha_degree,beta_degree,gamma_degree,pbc,sits,volume,species_at_sites,is_stable,is_magnetic,formation_energy,energy_above_hull,band_gap
1081,mp,mp-3183.cif,Dy1 B1 Rh3,DyBRh3,Pm-3m,4.17299336,4.17299336,4.17299336,90.0,90.0,90.0,"(True, True, True)","[PeriodicSite: Dy (0.0, 0.0, 0.0) [0.0, 0.0, 0.0], PeriodicSite: B (2.086, 2.086, 2.086) [0.5, 0.5, 0.5], PeriodicSite: Rh (0.0, 2.086, 2.086) [0.0, 0.5, 0.5], PeriodicSite: Rh (2.086, 2.086, 0.0) [0.5, 0.5, 0.0], PeriodicSite: Rh (2.086, 0.0, 2.086) [0.5, 0.0, 0.5]]",72.6679788320863,"[Element Dy, Element B, Element Rh, Element Rh, Element Rh]",True,True,-0.7960196278333342,0.0,0.0
1082,mp,mp-5438.cif,Tm1 B1 Rh3,TmBRh3,Pm-3m,4.15099888,4.15099888,4.15099888,90.0,90.0,90.0,"(True, True, True)","[PeriodicSite: Tm (0.0, 0.0, 0.0) [0.0, 0.0, 0.0], PeriodicSite: B (2.075, 2.075, 2.075) [0.5, 0.5, 0.5], PeriodicSite: Rh (0.0, 2.075, 2.075) [0.0, 0.5, 0.5], PeriodicSite: Rh (2.075, 2.075, 0.0) [0.5, 0.5, 0.0], PeriodicSite: Rh (2.075, 0.0, 2.075) [0.5, 0.0, 0.5]]",71.52499705552428,"[Element Tm, Element B, Element Rh, Element Rh, Element Rh]",True,False,-0.8236279111666661,0.0,0.0
1083,mp,mp-972659.cif,Sm1 Co1 Si3,SmCoSi3,I4mm,5.574695540189257,5.574695540189257,5.574695540189257,137.04593829768228,137.04593829768228,62.367376654779854,"(True, True, True)","[PeriodicSite: Sm (0.0, 0.0, 0.03876) [0.004064, 0.004064, -0.0], PeriodicSite: Co (0.0, 0.0, 6.305) [0.661, 0.661, 0.0], PeriodicSite: Si (-2.22e-16, 2.041, 2.491) [0.7612, 0.2612, 0.5], PeriodicSite: Si (2.041, -2.22e-16, 2.491) [0.2612, 0.7612, 0.5], PeriodicSite: Si (0.0, 0.0, 4.079) [0.4276, 0.4276, -0.0]]",79.47229951651218,"[Element Sm, Element Co, Element Si, Element Si, Element Si]",True,False,-0.6281698220000003,0.0,0.0
1084,mp,mp-4405.cif,Rb3 Au1 O1,Rb3AuO,Pm-3m,5.50932825,5.50932825,5.50932825,90.0,90.0,90.0,"(True, True, True)","[PeriodicSite: Rb (0.0, 2.755, 2.755) [0.0, 0.5, 0.5], PeriodicSite: Rb (2.755, 2.755, 0.0) [0.5, 0.5, 0.0], PeriodicSite: Rb (2.755, 0.0, 2.755) [0.5, 0.0, 0.5], PeriodicSite: Au (0.0, 0.0, 0.0) [-0.0, -0.0, 0.0], PeriodicSite: O (2.755, 2.755, 2.755) [0.5, 0.5, 0.5]]",167.2229752673024,"[Element Rb, Element Rb, Element Rb, Element Au, Element O]",True,False,-0.81626954625,0.0,0.19789999999999996
1085,mp,mp-20424.cif,Mg1 Co3 C1,MgCo3C,Pm-3m,3.76239029,3.76239029,3.76239029,90.0,90.0,90.0,"(True, True, True)","[PeriodicSite: Mg (0.0, 0.0, 0.0) [0.0, -0.0, 0.0], PeriodicSite: Co (0.0, 1.881, 1.881) [-0.0, 0.5, 0.5], PeriodicSite: Co (1.881, 0.0, 1.881) [0.5, -0.0, 0.5], PeriodicSite: Co (1.881, 1.881, 0.0) [0.5, 0.5, -0.0], PeriodicSite: C (1.881, 1.881, 1.881) [0.5, 0.5, 0.5]]",53.258819353494175,"[Element Mg, Element Co, Element Co, Element Co, Element C]",True,True,-0.06958749650000158,0.0,0.0
1086,mp,mp-981934.cif,La1 Be1 O3,LaBeO3,Pm-3m,3.707597,3.707597,3.707597,90.0,90.0,90.0,"(True, True, True)","[PeriodicSite: La (0.0, 0.0, 0.0) [0.0, 0.0, 0.0], PeriodicSite: Be (1.854, 1.854, 1.854) [0.5, 0.5, 0.5], PeriodicSite: O (1.854, 1.854, 0.0) [0.5, 0.5, 0.0], PeriodicSite: O (1.854, 0.0, 1.854) [0.5, 0.0, 0.5], PeriodicSite: O (0.0, 1.854, 1.854) [0.0, 0.5, 0.5]]",50.965649858396255,"[Element La, Element Be, Element O, Element O, Element O]",False,True,-2.9204099312500005,0.25844008474999924,0.0
1087,mp,mp-4950.cif,K1 Ca1 F3,KCaF3,Pm-3m,4.481726,4.481726,4.481726,90.0,90.0,90.0,"(True, True, True)","[PeriodicSite: K (2.241, 2.241, 2.241) [0.5, 0.5, 0.5], PeriodicSite: Ca (0.0, 0.0, 0.0) [0.0, 0.0, 0.0], PeriodicSite: F (0.0, 2.241, 0.0) [0.0, 0.5, 0.0], PeriodicSite: F (0.0, 0.0, 2.241) [0.0, 0.0, 0.5], PeriodicSite: F (2.241, 0.0, 0.0) [0.5, 0.0, 0.0]]",90.01935657512333,"[Element K, Element Ca, Element F, Element F, Element F]",False,False,-3.7010561501,0.02386428450000011,6.1392
1088,mp,mp-19958.cif,Gd3 Pb1 C1,Gd3PbC,Pm-3m,5.788733,5.788733,5.788733,90.0,90.0,90.0,"(True, True, True)","[PeriodicSite: Gd (0.0, 2.894, 2.894) [0.0, 0.5, 0.5], PeriodicSite: Gd (2.894, 2.894, 0.0) [0.5, 0.5, 0.0], PeriodicSite: Gd (2.894, 0.0, 2.894) [0.5, 0.0, 0.5], PeriodicSite: Pb (2.894, 2.894, 2.894) [0.5, 0.5, 0.5], PeriodicSite: C (0.0, 0.0, 0.0) [0.0, 0.0, 0.0]]",193.977141777736,"[Element Gd, Element Gd, Element Gd, Element Pb, Element C]",False,True,1.5266930465000002,1.9362228934999965,0.0
1089,mp,mp-24419.cif,Sr1 Li1 H3,SrLiH3,Pm-3m,4.630791,4.630791,4.630791,90.0,90.0,90.0,"(True, True, True)","[PeriodicSite: Sr (2.315, 2.315, 2.315) [0.5, 0.5, 0.5], PeriodicSite: Li (0.0, 0.0, 0.0) [0.0, 0.0, 0.0], PeriodicSite: H (0.0, 2.315, 2.315) [0.0, 0.5, 0.5], PeriodicSite: H (2.315, 0.0, 2.315) [0.5, 0.0, 0.5], PeriodicSite: H (2.315, 2.315, 0.0) [0.5, 0.5, 0.0]]",99.30372545490403,"[Element Sr, Element Li, Element H, Element H, Element H]",False,False,-0.13200744899999997,0.45778285749999936,1.8636
1090,mp,mp-642690.cif,Cs1 Ge1 I3,CsGeI3,Cm,6.25770610713175,6.25770610713175,5.988627913234383,88.57680362431253,88.57680362431253,92.31435517196921,"(True, True, True)","[PeriodicSite: Cs (0.0, 0.8592, 3.494) [0.08465, 0.08465, 0.5838], PeriodicSite: Ge (0.0, 5.478, 0.697) [0.629, 0.629, 0.1165], PeriodicSite: I (0.0, 5.07, 3.543) [0.5702, 0.5702, 0.592], PeriodicSite: I (2.481, 3.021, 0.5858) [0.6209, 0.0712, 0.09788], PeriodicSite: I (-2.481, 3.021, 0.5858) [0.0712, 0.6209, 0.09788]]",234.16603554860086,"[Element Cs, Element Ge, Element I, Element I, Element I]",False,False,-1.093871618586207,0.008639773999999711,1.1901
1091,mp,mp-975200.cif,Rb1 Sr1 O3,RbSrO3,Pm-3m,4.852875,4.852875,4.852875,90.0,90.0,90.0,"(True, True, True)","[PeriodicSite: Rb (0.0, 0.0, 0.0) [0.0, 0.0, 0.0], PeriodicSite: Sr (2.426, 2.426, 2.426) [0.5, 0.5, 0.5], PeriodicSite: O (2.426, 2.426, 0.0) [0.5, 0.5, 0.0], PeriodicSite: O (2.426, 0.0, 2.426) [0.5, 0.0, 0.5], PeriodicSite: O (0.0, 2.426, 2.426) [0.0, 0.5, 0.5]]",114.28712685110743,"[Element Rb, Element Sr, Element O, Element O, Element O]",False,True,-1.3601421040833337,0.45709310399999925,0.0
1092,mp,mp-1227340.cif,Bi1 Sb1 Te3,BiSbTe3,R3m,10.93960463181661,10.93960463181661,10.93960500028064,23.012565253501897,23.012565253501897,23.012565258966152,"(True, True, True)","[PeriodicSite: Bi (19.14, 0.0, 2.338) [0.6036, 0.6036, 0.6036], PeriodicSite: Sb (12.58, 0.0, 1.536) [0.3967, 0.3967, 0.3967], PeriodicSite: Te (0.05857, 0.0, 0.007155) [0.001848, 0.001848, 0.001848], PeriodicSite: Te (6.839, 0.0, 0.8355) [0.2157, 0.2157, 0.2157], PeriodicSite: Te (24.79, 0.0, 3.028) [0.782, 0.782, 0.782]]",175.60495542387753,"[Element Bi, Element Sb, Element Te, Element Te, Element Te]",False,False,-0.44160578799999894,0.004540644000003091,0.21329999999999938
1093,mp,mp-21186.cif,Mn3 Rh1 N1,Mn3RhN,Pm-3m,4.81553,4.81553,4.81553,90.0,90.0,90.0,"(True, True, True)","[PeriodicSite: Mn (2.408, 2.408, 0.0) [0.5, 0.5, 0.0], PeriodicSite: Mn (2.408, 0.0, 2.408) [0.5, 0.0, 0.5], PeriodicSite: Mn (0.0, 2.408, 2.408) [0.0, 0.5, 0.5], PeriodicSite: Rh (2.408, 2.408, 2.408) [0.5, 0.5, 0.5], PeriodicSite: N (0.0, 0.0, 0.0) [0.0, 0.0, 0.0]]",111.66891035049937,"[Element Mn, Element Mn, Element Mn, Element Rh, Element N]",False,True,1.7491056842413784,2.0627095604999974,0.0
1094,mp,mp-973579.cif,Fe1 Pb1 O3,FePbO3,Pm-3m,3.947544,3.947544,3.947544,90.0,90.0,90.0,"(True, True, True)","[PeriodicSite: Fe (1.974, 1.974, 1.974) [0.5, 0.5, 0.5], PeriodicSite: Pb (0.0, 0.0, 0.0) [0.0, 0.0, 0.0], PeriodicSite: O (1.974, 1.974, 0.0) [0.5, 0.5, 0.0], PeriodicSite: O (1.974, 0.0, 1.974) [0.5, 0.0, 0.5], PeriodicSite: O (0.0, 1.974, 1.974) [0.0, 0.5, 0.5]]",61.514987243627175,"[Element Fe, Element Pb, Element O, Element O, Element O]",False,True,-1.357449325249999,0.19825018625000546,0.0
1095,mp,mp-973068.cif,Sc1 Cu1 O3,ScCuO3,Pm-3m,3.728893,3.728893,3.728893,90.0,90.0,90.0,"(True, True, True)","[PeriodicSite: Sc (0.0, 0.0, 0.0) [0.0, 0.0, 0.0], PeriodicSite: Cu (1.864, 1.864, 1.864) [0.5, 0.5, 0.5], PeriodicSite: O (1.864, 1.864, 0.0) [0.5, 0.5, 0.0], PeriodicSite: O (1.864, 0.0, 1.864) [0.5, 0.0, 0.5], PeriodicSite: O (0.0, 1.864, 1.864) [0.0, 0.5, 0.5]]",51.848925970517726,"[Element Sc, Element Cu, Element O, Element O, Element O]",False,False,-1.8382649402499993,0.5634292605000004,0.0
1096,mp,mp-9831.cif,La1 Ga1 O3,LaGaO3,Pm-3m,4.599907,4.599907,4.599907,90.0,90.0,90.0,"(True, True, True)","[PeriodicSite: La (2.3, 2.3, 2.3) [0.5, 0.5, 0.5], PeriodicSite: Ga (0.0, 0.0, 0.0) [0.0, 0.0, 0.0], PeriodicSite: O (0.0, 2.3, 2.3) [0.0, 0.5, 0.5], PeriodicSite: O (2.3, 0.0, 2.3) [0.5, 0.0, 0.5], PeriodicSite: O (2.3, 2.3, 0.0) [0.5, 0.5, 0.0]]",97.33009647935539,"[Element La, Element Ga, Element O, Element O, Element O]",False,True,-1.6874276277500002,1.4438151811428561,0.0
1097,mp,mp-1427680.cif,Zn1 W1 O3,ZnWO3,Amm2,3.9973023393083493,3.9973023393083493,4.072086,90.0,90.0,91.01825562508259,"(True, True, True)","[PeriodicSite: Zn (2.547, 0.0, 2.036) [0.4545, 0.4545, 0.5], PeriodicSite: W (0.2233, 0.0, 0.0) [0.03986, 0.03986, 0.0], PeriodicSite: O (0.4329, 0.0, 2.036) [0.07726, 0.07726, 0.5], PeriodicSite: O (1.751, 1.402, 0.0) [0.0667, 0.5584, 0.0], PeriodicSite: O (1.751, -1.402, 0.0) [0.5584, 0.0667, 0.0]]",65.05524987683661,"[Element Zn, Element W, Element O, Element O, Element O]",False,True,-1.4578015792500003,0.481321356999997,0.0
1098,mp,mp-972222.cif,Ta1 Be1 O3,TaBeO3,Pm-3m,3.421618,3.421618,3.421618,90.0,90.0,90.0,"(True, True, True)","[PeriodicSite: Ta (0.0, 0.0, 0.0) [0.0, 0.0, 0.0], PeriodicSite: Be (1.711, 1.711, 1.711) [0.5, 0.5, 0.5], PeriodicSite: O (1.711, 1.711, 0.0) [0.5, 0.5, 0.0], PeriodicSite: O (1.711, 0.0, 1.711) [0.5, 0.0, 0.5], PeriodicSite: O (0.0, 1.711, 1.711) [0.0, 0.5, 0.5]]",40.058489189736044,"[Element Ta, Element Be, Element O, Element O, Element O]",False,False,-2.1088165402499994,1.001009455400002,0.0
1099,mp,mp-545712.cif,Li1 U1 O3,LiUO3,Pm-3m,4.276264,4.276264,4.276264,90.0,90.0,90.0,"(True, True, True)","[PeriodicSite: Li (0.0, 0.0, 0.0) [0.0, 0.0, 0.0], PeriodicSite: U (2.138, 2.138, 2.138) [0.5, 0.5, 0.5], PeriodicSite: O (2.138, 2.138, 0.0) [0.5, 0.5, 0.0], PeriodicSite: O (0.0, 2.138, 2.138) [0.0, 0.5, 0.5], PeriodicSite: O (2.138, 0.0, 2.138) [0.5, 0.0, 0.5]]",78.1976185374707,"[Element Li, Element U, Element O, Element O, Element O]",False,True,-3.1402378519166674,0.2090344249999987,0.41720000000000024
1100,mp,mp-760376.cif,K1 Ti1 O3,KTiO3,P4mm,3.69172,3.69172,5.766897,90.0,90.0,90.0,"(True, True, True)","[PeriodicSite: K (1.846, 1.846, 5.745) [0.5, 0.5, 0.9963], PeriodicSite: Ti (0.0, 0.0, 2.853) [0.0, 0.0, 0.4948], PeriodicSite: O (1.846, 0.0, 3.494) [0.5, 0.0, 0.6059], PeriodicSite: O (0.0, 1.846, 3.494) [0.0, 0.5, 0.6059], PeriodicSite: O (0.0, 0.0, 1.122) [0.0, 0.0, 0.1946]]",78.59586598624729,"[Element K, Element Ti, Element O, Element O, Element O]",False,True,-2.6674177285166665,0.08932033112500104,0.0
1101,mp,mp-28593.cif,Li3 Br1 O1,Li3BrO,Pm-3m,3.948643,3.948643,3.948643,90.0,90.0,90.0,"(True, True, True)","[PeriodicSite: Li (1.974, 0.0, 0.0) [0.5, 0.0, 0.0], PeriodicSite: Li (0.0, 0.0, 1.974) [0.0, 0.0, 0.5], PeriodicSite: Li (0.0, 1.974, 0.0) [0.0, 0.5, 0.0], PeriodicSite: Br (1.974, 1.974, 1.974) [0.5, 0.5, 0.5], PeriodicSite: O (0.0, 0.0, 0.0) [0.0, 0.0, 0.0]]",61.56637904117181,"[Element Li, Element Li, Element Li, Element Br, Element O]",False,False,-1.9512906817499995,0.03706398000000011,4.277500000000001
1102,mp,mp-1412687.cif,Y1 Sn1 O3,YSnO3,Pm-3m,4.14186,4.14186,4.14186,90.0,90.0,90.0,"(True, True, True)","[PeriodicSite: Y (0.0, 0.0, 0.0) [0.0, 0.0, 0.0], PeriodicSite: Sn (2.071, 2.071, 2.071) [0.5, 0.5, 0.5], PeriodicSite: O (2.071, 2.071, 0.0) [0.5, 0.5, 0.0], PeriodicSite: O (2.071, 0.0, 2.071) [0.5, 0.0, 0.5], PeriodicSite: O (0.0, 2.071, 2.071) [0.0, 0.5, 0.5]]",71.05362594266687,"[Element Y, Element Sn, Element O, Element O, Element O]",False,False,-2.172690059583334,0.8104025173437526,0.0
1103,mp,mp-19769.cif,Tb3 In1 N1,Tb3InN,Pm-3m,4.82578461,4.82578461,4.82578461,90.0,90.0,90.0,"(True, True, True)","[PeriodicSite: Tb (2.413, 2.413, 0.0) [0.5, 0.5, -0.0], PeriodicSite: Tb (0.0, 2.413, 2.413) [-0.0, 0.5, 0.5], PeriodicSite: Tb (2.413, 0.0, 2.413) [0.5, -0.0, 0.5], PeriodicSite: In (0.0, 0.0, 0.0) [0.0, -0.0, -0.0], PeriodicSite: N (2.413, 2.413, 2.413) [0.5, 0.5, 0.5]]",112.38382317002284,"[Element Tb, Element Tb, Element Tb, Element In, Element N]",True,False,-1.057309309,0.0,0.0
1104,mp,mp-4126.cif,K1 U1 O3,KUO3,Pm-3m,4.29886276,4.29886276,4.29886276,90.0,90.0,90.0,"(True, True, True)","[PeriodicSite: K (2.149, 2.149, 2.149) [0.5, 0.5, 0.5], PeriodicSite: U (0.0, 0.0, 0.0) [-0.0, -0.0, -0.0], PeriodicSite: O (0.0, 2.149, 0.0) [0.0, 0.5, 0.0], PeriodicSite: O (0.0, 0.0, 2.149) [-0.0, 0.0, 0.5], PeriodicSite: O (2.149, 0.0, 0.0) [0.5, 0.0, 0.0]]",79.44393397949031,"[Element K, Element U, Element O, Element O, Element O]",True,True,-3.34006742185,0.0,0.44540000000000024
1105,mp,mp-998710.cif,Tl1 Hg1 F3,TlHgF3,P1,4.526533263964605,4.519329777392354,4.540155456668864,89.71822329576705,88.13129338213577,89.59889529654025,"(True, True, True)","[PeriodicSite: Tl (-4.35, -0.07884, -4.323) [0.0381, 0.9712, 0.9364], PeriodicSite: Hg (-2.23, -2.264, -2.285) [0.5112, 0.4917, 0.4716], PeriodicSite: F (-4.504, -2.025, -2.618) [0.4625, 0.9963, 0.5399], PeriodicSite: F (-2.407, -4.452, -2.769) [0.9966, 0.5258, 0.5542], PeriodicSite: F (-2.307, -1.867, -4.613) [0.4316, 0.515, 0.9879]]",92.82479948765523,"[Element Tl, Element Hg, Element F, Element F, Element F]",False,False,-1.829065697166667,0.01302452824999989,1.805
1106,mp,mp-19763.cif,Eu1 Ge3 Pt1,EuGe3Pt,I4mm,4.482715624304767,4.482712873395345,5.92924445675181,112.21091846995598,112.21092864071983,90.00000331759219,"(True, True, True)","[PeriodicSite: Eu (3.452, 4.075, 2.548) [0.9985, 0.9985, 0.997], PeriodicSite: Ge (2.964, 1.047, 1.345) [0.7576, 0.2576, 0.5152], PeriodicSite: Ge (0.5452, 3.095, 1.345) [0.2576, 0.7576, 0.5152], PeriodicSite: Ge (1.39, 1.641, 3.429) [0.4038, 0.4038, 0.8077], PeriodicSite: Pt (2.246, 2.651, -0.4257) [0.6483, 0.6483, 0.2965]]",100.6915814565631,"[Element Eu, Element Ge, Element Ge, Element Ge, Element Pt]",True,True,-0.6548420469999996,0.0,0.0
1107,mp,mp-975596.cif,Pu1 Ir1 O3,PuIrO3,Pm-3m,4.134388,4.134388,4.134388,90.0,90.0,90.0,"(True, True, True)","[PeriodicSite: Pu (2.067, 2.067, 2.067) [0.5, 0.5, 0.5], PeriodicSite: Ir (0.0, 0.0, 0.0) [0.0, 0.0, 0.0], PeriodicSite: O (2.067, 2.067, 0.0) [0.5, 0.5, 0.0], PeriodicSite: O (2.067, 0.0, 2.067) [0.5, 0.0, 0.5], PeriodicSite: O (0.0, 2.067, 2.067) [0.0, 0.5, 0.5]]",70.66977267988912,"[Element Pu, Element Ir, Element O, Element O, Element O]",False,False,-1.1719575352500002,1.3969327675000027,0.0
1108,mp,mp-7144.cif,Sm3 Al1 C1,Sm3AlC,Pm-3m,5.01642188,5.01642188,5.01642188,90.0,90.0,90.0,"(True, True, True)","[PeriodicSite: Sm (0.0, 2.508, 2.508) [0.0, 0.5, 0.5], PeriodicSite: Sm (2.508, 0.0, 2.508) [0.5, 0.0, 0.5], PeriodicSite: Sm (2.508, 2.508, 0.0) [0.5, 0.5, 0.0], PeriodicSite: Al (0.0, 0.0, 0.0) [0.0, 0.0, 0.0], PeriodicSite: C (2.508, 2.508, 2.508) [0.5, 0.5, 0.5]]",126.23569060076314,"[Element Sm, Element Sm, Element Sm, Element Al, Element C]",False,False,-0.2565420924999998,0.0026391752500014576,0.0
1109,mp,mp-23037.cif,Cs1 Pb1 Cl3,CsPbCl3,Pm-3m,5.67984477,5.67984477,5.67984477,90.0,90.0,90.0,"(True, True, True)","[PeriodicSite: Cs (0.0, 0.0, 0.0) [0.0, 0.0, 0.0], PeriodicSite: Pb (2.84, 2.84, 2.84) [0.5, 0.5, 0.5], PeriodicSite: Cl (0.0, 2.84, 2.84) [0.0, 0.5, 0.5], PeriodicSite: Cl (2.84, 0.0, 2.84) [0.5, 0.0, 0.5], PeriodicSite: Cl (2.84, 2.84, 0.0) [0.5, 0.5, 0.0]]",183.23540813354208,"[Element Cs, Element Pb, Element Cl, Element Cl, Element Cl]",False,False,-1.881022539586207,0.008290494999992681,2.1878
1110,mp,mp-998568.cif,K1 Ag1 Br3,KAgBr3,Cm,5.353612944081909,5.339531110926847,5.351152760035055,89.8845294593043,89.97814514545226,90.03146015385438,"(True, True, True)","[PeriodicSite: K (0.003126, 0.01715, 0.01222) [0.0005849, 0.003208, 0.002283], PeriodicSite: Ag (2.676, 2.75, 2.686) [0.5, 0.5139, 0.5021], PeriodicSite: Br (-0.001017, 2.75, 2.704) [-8.625e-05, 0.514, 0.5053], PeriodicSite: Br (2.664, 0.08052, 2.666) [0.4974, 0.01394, 0.4982], PeriodicSite: Br (2.686, 2.75, 0.01045) [0.5021, 0.5149, 0.002077]]",152.96654600988356,"[Element K, Element Ag, Element Br, Element Br, Element Br]",False,False,-1.2307758259333332,0.004718186999999929,0.0
1111,mp,mp-1227390.cif,Ba1 Tl1 In3,BaTlIn3,I-4m2,5.132796,5.132796,7.142914544767493,68.9432185930615,68.9432185930615,90.0,"(True, True, True)","[PeriodicSite: Ba (0.0, 0.0, 0.0) [0.0, 0.0, 0.0], PeriodicSite: Tl (5.133, 2.566, 3.076) [0.75, 0.25, 0.5], PeriodicSite: In (2.566, 2.566, 1.443) [0.3827, 0.3827, 0.2346], PeriodicSite: In (5.133, 5.133, 4.709) [0.6173, 0.6173, 0.7654], PeriodicSite: In (2.566, 5.133, 3.076) [0.25, 0.75, 0.5]]",162.08091805053485,"[Element Ba, Element Tl, Element In, Element In, Element In]",False,False,-0.31322870866666686,0.012278902499999855,0.0
1112,mp,mp-20963.cif,Tb3 Pb1 C1,Tb3PbC,Pm-3m,5.706678,5.706678,5.706678,90.0,90.0,90.0,"(True, True, True)","[PeriodicSite: Tb (0.0, 2.853, 2.853) [0.0, 0.5, 0.5], PeriodicSite: Tb (2.853, 2.853, 0.0) [0.5, 0.5, 0.0], PeriodicSite: Tb (2.853, 0.0, 2.853) [0.5, 0.0, 0.5], PeriodicSite: Pb (2.853, 2.853, 2.853) [0.5, 0.5, 0.5], PeriodicSite: C (0.0, 0.0, 0.0) [0.0, 0.0, 0.0]]",185.8446675440064,"[Element Tb, Element Tb, Element Tb, Element Pb, Element C]",False,False,1.6116486724999994,2.0306392364444448,0.0
1113,mp,mp-13120.cif,Ce1 Si3 Ru1,CeSi3Ru,I4mm,4.197605820886497,4.197605119275597,5.785440997706646,111.27061262319918,111.27060526659498,89.99999859612414,"(True, True, True)","[PeriodicSite: Ce (1.909, 2.227, -0.8813) [0.576, 0.576, 0.1519], PeriodicSite: Si (3.095, 1.33, 2.152) [0.8425, 0.3425, 0.685], PeriodicSite: Si (0.8412, 3.262, 2.152) [0.3425, 0.8425, 0.685], PeriodicSite: Si (3.317, 3.87, 2.722) [0.9991, 0.9991, 0.9983], PeriodicSite: Ru (0.782, 0.9122, 2.001) [0.235, 0.235, 0.4699]]",87.50077524413086,"[Element Ce, Element Si, Element Si, Element Si, Element Ru]",True,True,-0.7232908269999996,0.0,0.0
1114,mp,mp-34078.cif,H3 Cl1 O1,H3ClO,R3m,4.040726660308461,4.040727609570327,4.040728367494486,72.62067859740591,72.62067608232071,72.62065901299401,"(True, True, True)","[PeriodicSite: H (3.076, 3.336, 2.664) [0.3528, 0.7008, 0.7008], PeriodicSite: H (4.072, 2.001, 2.664) [0.7008, 0.3528, 0.7008], PeriodicSite: H (4.072, 3.041, 1.363) [0.7008, 0.7008, 0.3528], PeriodicSite: Cl (6.354, 4.745, 3.789) [0.9936, 0.9936, 0.9936], PeriodicSite: O (3.505, 2.617, 2.09) [0.548, 0.548, 0.548]]",58.477742586388715,"[Element H, Element H, Element H, Element Cl, Element O]",True,False,-1.1434280367499994,0.0,5.3864
1115,mp,mp-570822.cif,Tb3 Al1 C1,Tb3AlC,Pm-3m,4.90293061,4.90293061,4.90293061,90.0,90.0,90.0,"(True, True, True)","[PeriodicSite: Tb (2.451, 2.451, 0.0) [0.5, 0.5, -0.0], PeriodicSite: Tb (2.451, 0.0, 2.451) [0.5, -0.0, 0.5], PeriodicSite: Tb (0.0, 2.451, 2.451) [-0.0, 0.5, 0.5], PeriodicSite: Al (0.0, 0.0, 0.0) [0.0, 0.0, 0.0], PeriodicSite: C (2.451, 2.451, 2.451) [0.5, 0.5, 0.5]]",117.86021811405159,"[Element Tb, Element Tb, Element Tb, Element Al, Element C]",True,False,-0.3568187715000001,0.0,0.0
1116,mp,mp-30056.cif,Cs1 Ca1 Br3,CsCaBr3,Pm-3m,5.70866573,5.70866573,5.70866573,90.0,90.0,90.0,"(True, True, True)","[PeriodicSite: Cs (0.0, 0.0, 0.0) [0.0, 0.0, 0.0], PeriodicSite: Ca (2.854, 2.854, 2.854) [0.5, 0.5, 0.5], PeriodicSite: Br (2.854, 0.0, 2.854) [0.5, -0.0, 0.5], PeriodicSite: Br (0.0, 2.854, 2.854) [0.0, 0.5, 0.5], PeriodicSite: Br (2.854, 2.854, 0.0) [0.5, 0.5, -0.0]]",186.03893347623892,"[Element Cs, Element Ca, Element Br, Element Br, Element Br]",True,False,-2.356895221586207,0.0,4.3923