,provider,id,Full_Formula,formula,space_group,a_lattice_param,b_lattice_param,c_lattice_param,aplha_degree,beta_degree,gamma_degree,pbc,sits,volume,species_at_sites,is_stable,is_magnetic,formation_energy,energy_above_hull,band_gap
1480,mp,mp-973830.cif,K1 Er1 O3,KErO3,Pm-3m,4.426509,4.426509,4.426509,90.0,90.0,90.0,"(True, True, True)","[PeriodicSite: K (0.0, 0.0, 0.0) [0.0, 0.0, 0.0], PeriodicSite: Er (2.213, 2.213, 2.213) [0.5, 0.5, 0.5], PeriodicSite: O (2.213, 2.213, 0.0) [0.5, 0.5, 0.0], PeriodicSite: O (2.213, 0.0, 2.213) [0.5, 0.0, 0.5], PeriodicSite: O (0.0, 2.213, 2.213) [0.0, 0.5, 0.5]]",86.7329373460614,"[Element K, Element Er, Element O, Element O, Element O]",False,True,-2.3303793898499996,0.2558320526666673,0.0
1481,mp,mp-981376.cif,Sc1 Sn1 O3,ScSnO3,Pm-3m,4.10743,4.10743,4.10743,90.0,90.0,90.0,"(True, True, True)","[PeriodicSite: Sc (0.0, 0.0, 0.0) [0.0, 0.0, 0.0], PeriodicSite: Sn (2.054, 2.054, 2.054) [0.5, 0.5, 0.5], PeriodicSite: O (0.0, 0.0, 2.054) [0.0, 0.0, 0.5], PeriodicSite: O (0.0, 2.054, 0.0) [0.0, 0.5, 0.0], PeriodicSite: O (2.054, 0.0, 0.0) [0.5, 0.0, 0.0]]",69.29637433044239,"[Element Sc, Element Sn, Element O, Element O, Element O]",False,True,-2.27144191325,0.6724758994999975,0.0
1482,mp,mp-1223446.cif,K1 I1 O3,KIO3,R3,4.522157015279876,4.522157015279876,4.522156918585754,88.48517690131858,88.48517690131858,88.48517749732838,"(True, True, True)","[PeriodicSite: K (3.362, 0.0, 2.286) [0.5058, 0.5058, 0.5058], PeriodicSite: I (0.03152, 0.0, 0.02143) [0.004742, 0.004742, 0.004742], PeriodicSite: O (2.135, 1.712, 0.1599) [0.05734, 0.6, 0.03538], PeriodicSite: O (2.068, -1.781, 0.2591) [0.6, 0.03538, 0.05734], PeriodicSite: O (0.4005, 0.06928, 2.711) [0.03538, 0.05734, 0.6]]",92.38239400710273,"[Element K, Element I, Element O, Element O, Element O]",False,False,-1.3755467338500005,0.005203946250001756,2.5294999999999996
1483,mp,mp-975207.cif,Rb1 Sm1 O3,RbSmO3,Pm-3m,4.576909,4.576909,4.576909,90.0,90.0,90.0,"(True, True, True)","[PeriodicSite: Rb (0.0, 0.0, 0.0) [0.0, 0.0, 0.0], PeriodicSite: Sm (2.288, 2.288, 2.288) [0.5, 0.5, 0.5], PeriodicSite: O (2.288, 2.288, 0.0) [0.5, 0.5, 0.0], PeriodicSite: O (2.288, 0.0, 2.288) [0.5, 0.0, 0.5], PeriodicSite: O (0.0, 2.288, 2.288) [0.0, 0.5, 0.5]]",95.87752908908864,"[Element Rb, Element Sm, Element O, Element O, Element O]",False,True,-2.19894691975,0.2710694911249991,0.0
1484,mp,mp-975373.cif,Rb1 Ni1 O3,RbNiO3,Pm-3m,4.051925,4.051925,4.051925,90.0,90.0,90.0,"(True, True, True)","[PeriodicSite: Rb (2.026, 2.026, 2.026) [0.5, 0.5, 0.5], PeriodicSite: Ni (0.0, 0.0, 0.0) [0.0, 0.0, 0.0], PeriodicSite: O (0.0, 0.0, 2.026) [0.0, 0.0, 0.5], PeriodicSite: O (0.0, 2.026, 0.0) [0.0, 0.5, 0.0], PeriodicSite: O (2.026, 0.0, 0.0) [0.5, 0.0, 0.0]]",66.52489446797706,"[Element Rb, Element Ni, Element O, Element O, Element O]",False,True,-0.6515663387499998,0.41978733499999876,0.0
1485,mp,mp-19726.cif,Sc3 In1 B1,Sc3InB,Pm-3m,4.688983,4.688983,4.688983,90.0,90.0,90.0,"(True, True, True)","[PeriodicSite: Sc (0.0, 2.344, 2.344) [0.0, 0.5, 0.5], PeriodicSite: Sc (2.344, 2.344, 0.0) [0.5, 0.5, 0.0], PeriodicSite: Sc (2.344, 0.0, 2.344) [0.5, 0.0, 0.5], PeriodicSite: In (0.0, 0.0, 0.0) [0.0, 0.0, 0.0], PeriodicSite: B (2.344, 2.344, 2.344) [0.5, 0.5, 0.5]]",103.09461345029437,"[Element Sc, Element Sc, Element Sc, Element In, Element B]",False,False,-0.39758689483333287,0.08454891700000022,0.0
1486,mp,mp-985586.cif,Na3 Br1 O1,Na3BrO,Pm-3m,4.53313,4.53313,4.53313,90.0,90.0,90.0,"(True, True, True)","[PeriodicSite: Na (0.0, 2.267, 2.267) [0.0, 0.5, 0.5], PeriodicSite: Na (2.267, 0.0, 2.267) [0.5, 0.0, 0.5], PeriodicSite: Na (2.267, 2.267, 0.0) [0.5, 0.5, 0.0], PeriodicSite: Br (0.0, 0.0, 0.0) [0.0, 0.0, 0.0], PeriodicSite: O (2.267, 2.267, 2.267) [0.5, 0.5, 0.5]]",93.15250142153529,"[Element Na, Element Na, Element Na, Element Br, Element O]",True,False,-1.6444285116810344,0.0,1.8815
1487,mp,mp-21076.cif,Eu1 Rh3 C1,EuRh3C,Pm-3m,4.223061,4.223061,4.223061,90.0,90.0,90.0,"(True, True, True)","[PeriodicSite: Eu (0.0, 0.0, 0.0) [0.0, 0.0, 0.0], PeriodicSite: Rh (0.0, 2.112, 2.112) [0.0, 0.5, 0.5], PeriodicSite: Rh (2.112, 2.112, 0.0) [0.5, 0.5, 0.0], PeriodicSite: Rh (2.112, 0.0, 2.112) [0.5, 0.0, 0.5], PeriodicSite: C (2.112, 2.112, 2.112) [0.5, 0.5, 0.5]]",75.3151011865486,"[Element Eu, Element Rh, Element Rh, Element Rh, Element C]",False,True,-0.21046566550000137,0.060893816499998366,0.0
1488,mp,mp-998398.cif,In1 Sn1 Br3,InSnBr3,P1,5.932798,5.9596259987469855,5.985729786045307,85.06332740221646,87.21602851264228,88.38034628739821,"(True, True, True)","[PeriodicSite: In (0.5241, 0.6868, 0.7005) [0.07959, 0.1053, 0.1176], PeriodicSite: Sn (3.118, 3.196, 2.86) [0.4879, 0.4957, 0.4801], PeriodicSite: Br (6.102, 3.079, 2.678) [0.9928, 0.4785, 0.4495], PeriodicSite: Br (3.094, 3.185, 5.668) [0.462, 0.4537, 0.9514], PeriodicSite: Br (3.127, 6.043, 2.629) [0.4777, 0.9768, 0.4413]]",210.5433445485441,"[Element In, Element Sn, Element Br, Element Br, Element Br]",False,False,-1.099480689,0.010272630000000227,1.0975
1489,mp,mp-984357.cif,Cs1 K1 O3,CsKO3,Pm-3m,4.493182,4.493182,4.493182,90.0,90.0,90.0,"(True, True, True)","[PeriodicSite: Cs (2.247, 2.247, 2.247) [0.5, 0.5, 0.5], PeriodicSite: K (0.0, 0.0, 0.0) [0.0, 0.0, 0.0], PeriodicSite: O (2.247, 2.247, 0.0) [0.5, 0.5, 0.0], PeriodicSite: O (2.247, 0.0, 2.247) [0.5, 0.0, 0.5], PeriodicSite: O (0.0, 2.247, 2.247) [0.0, 0.5, 0.5]]",90.71143373223842,"[Element Cs, Element K, Element O, Element O, Element O]",False,False,-0.4188030594362068,0.6880464689999979,0.0
1490,mp,mp-998744.cif,Tl1 Ge1 Cl3,TlGeCl3,Cm,5.3281037089900005,5.3281037089900005,5.321929695849524,89.22621218414685,89.22621218414685,89.16190864111338,"(True, True, True)","[PeriodicSite: Tl (0.0, 7.508, 0.04798) [0.9891, 0.9891, 0.009017], PeriodicSite: Ge (0.0, 3.694, 2.487) [0.4805, 0.4805, 0.4675], PeriodicSite: Cl (1.784, 2.01, 2.538) [0.497, 0.02002, 0.4769], PeriodicSite: Cl (0.0, 3.819, 0.02987) [0.5031, 0.5031, 0.005613], PeriodicSite: Cl (-1.784, 2.01, 2.538) [0.02002, 0.497, 0.4769]]",151.03928858108335,"[Element Tl, Element Ge, Element Cl, Element Cl, Element Cl]",True,False,-1.2530651836666666,0.0,1.3779
1491,mp,mp-981250.cif,Sm1 Pu1 O3,SmPuO3,Pm-3m,4.353633,4.353633,4.353633,90.0,90.0,90.0,"(True, True, True)","[PeriodicSite: Sm (2.177, 2.177, 2.177) [0.5, 0.5, 0.5], PeriodicSite: Pu (0.0, 0.0, 0.0) [0.0, 0.0, 0.0], PeriodicSite: O (0.0, 0.0, 2.177) [0.0, 0.0, 0.5], PeriodicSite: O (0.0, 2.177, 0.0) [0.0, 0.5, 0.0], PeriodicSite: O (2.177, 0.0, 0.0) [0.5, 0.0, 0.0]]",82.5192836183423,"[Element Sm, Element Pu, Element O, Element O, Element O]",False,True,-2.944352704250001,0.7339322471249989,0.0
1492,mp,mp-978493.cif,Si1 Sn1 O3,SiSnO3,Pm-3m,3.712219,3.712219,3.712219,90.0,90.0,90.0,"(True, True, True)","[PeriodicSite: Si (1.856, 1.856, 1.856) [0.5, 0.5, 0.5], PeriodicSite: Sn (0.0, 0.0, 0.0) [0.0, 0.0, 0.0], PeriodicSite: O (1.856, 1.856, 0.0) [0.5, 0.5, 0.0], PeriodicSite: O (1.856, 0.0, 1.856) [0.5, 0.0, 0.5], PeriodicSite: O (0.0, 1.856, 1.856) [0.0, 0.5, 0.5]]",51.15649342831221,"[Element Si, Element Sn, Element O, Element O, Element O]",False,False,-2.12669620025,0.486258473000003,0.7593999999999994
1493,mp,mp-998231.cif,K1 Ge1 Cl3,KGeCl3,Cm,5.356161585232656,5.356161585232656,5.335108327419042,89.08382834136158,89.08382834136158,89.1541508229154,"(True, True, True)","[PeriodicSite: K (0.0, 7.72, 5.328) [0.996, 0.996, 0.9989], PeriodicSite: Ge (0.0, 3.704, 2.492) [0.4782, 0.4782, 0.4672], PeriodicSite: Cl (1.769, 2.034, 2.568) [0.4942, 0.02365, 0.4814], PeriodicSite: Cl (0.0, 3.819, 0.04004) [0.5003, 0.5003, 0.007507], PeriodicSite: Cl (-1.769, 2.034, 2.568) [0.02365, 0.4942, 0.4814]]",153.00083795544327,"[Element K, Element Ge, Element Cl, Element Cl, Element Cl]",False,False,-1.6316517836,0.028222892999999694,1.4859
1494,mp,mp-20362.cif,Mn3 Ni1 N1,Mn3NiN,Pm-3m,3.838489,3.838489,3.838489,90.0,90.0,90.0,"(True, True, True)","[PeriodicSite: Mn (0.0, 1.919, 1.919) [0.0, 0.5, 0.5], PeriodicSite: Mn (1.919, 1.919, 0.0) [0.5, 0.5, 0.0], PeriodicSite: Mn (1.919, 0.0, 1.919) [0.5, 0.0, 0.5], PeriodicSite: Ni (0.0, 0.0, 0.0) [0.0, 0.0, 0.0], PeriodicSite: N (1.919, 1.919, 1.919) [0.5, 0.5, 0.5]]",56.55628849330412,"[Element Mn, Element Mn, Element Mn, Element Ni, Element N]",False,True,-0.21339147775861989,0.061092945666665344,0.0
1495,mp,mp-1223812.cif,K3 Cl1 O1,K3ClO,Pm,5.13676547,5.1466880083214885,5.143947178761857,89.54404140941124,90.0,90.0,"(True, True, True)","[PeriodicSite: K (0.0, 2.574, 0.2078) [-0.0, 0.4998, 0.04091], PeriodicSite: K (2.568, 0.1597, 0.01515) [0.5, 0.031, 0.002976], PeriodicSite: K (0.0, 5.021, 2.649) [-0.0, 0.9709, 0.516], PeriodicSite: Cl (2.568, 2.588, 2.561) [0.5, 0.4984, 0.4984], PeriodicSite: O (0.0, 8.801e-05, 0.07217) [-0.0, -0.0001086, 0.01403]]",135.98791905706403,"[Element K, Element K, Element K, Element Cl, Element O]",False,False,-1.6342619195500006,0.01800136799999974,0.9897000000000001
1496,mp,mp-8399.cif,Cs1 Cd1 F3,CsCdF3,Pm-3m,4.48681068,4.48681068,4.48681068,90.0,90.0,90.0,"(True, True, True)","[PeriodicSite: Cs (0.0, 0.0, 0.0) [-0.0, -0.0, -0.0], PeriodicSite: Cd (2.243, 2.243, 2.243) [0.5, 0.5, 0.5], PeriodicSite: F (0.0, 2.243, 2.243) [-0.0, 0.5, 0.5], PeriodicSite: F (2.243, 0.0, 2.243) [0.5, 0.0, 0.5], PeriodicSite: F (2.243, 2.243, 0.0) [0.5, 0.5, -0.0]]",90.32609495079795,"[Element Cs, Element Cd, Element F, Element F, Element F]",True,False,-2.7090608710862063,0.0,3.2859
1497,mp,mp-1385732.cif,Rb1 Pd1 Br3,RbPdBr3,Pm,5.296201,5.289077,5.292232487559953,89.95704087548238,90.0,90.0,"(True, True, True)","[PeriodicSite: Rb (0.0, 5.26, 5.287) [0.0, 0.9937, 0.999], PeriodicSite: Pd (2.648, 2.567, 2.668) [0.5, 0.4849, 0.5041], PeriodicSite: Br (0.0, 2.579, 2.667) [0.0, 0.4873, 0.504], PeriodicSite: Br (2.648, 5.213, 2.641) [0.5, 0.9853, 0.499], PeriodicSite: Br (2.648, 2.585, 0.02106) [0.5, 0.4888, 0.00398]]",148.24605360759736,"[Element Rb, Element Pd, Element Br, Element Br, Element Br]",False,False,-1.2714513734999997,0.007196885999999125,0.0
1498,mp,mp-579496.cif,Fe3 Pt1 N1,Fe3PtN,Pm-3m,3.84908392,3.84911315,3.84906827,90.0,90.0,90.0,"(True, True, True)","[PeriodicSite: Fe (0.0, 1.925, 1.925) [-0.0, 0.5, 0.5], PeriodicSite: Fe (1.925, 0.0, 1.925) [0.5, -0.0, 0.5], PeriodicSite: Fe (1.925, 1.925, 0.0) [0.5, 0.5, 0.0], PeriodicSite: Pt (0.0, 0.0, 0.0) [0.0, -0.0, -0.0], PeriodicSite: N (1.925, 1.925, 1.925) [0.5, 0.5, 0.5]]",57.02610009663068,"[Element Fe, Element Fe, Element Fe, Element Pt, Element N]",True,True,-0.2516864389999981,0.0,0.0
1499,mp,mp-22346.cif,Ba1 Ge3 Pt1,BaGe3Pt,I4mm,4.599647444958798,4.5996472328335845,6.0884976106403625,112.1985307406994,112.19852843905775,90.04224809227341,"(True, True, True)","[PeriodicSite: Ba (3.548, 4.195, 2.62) [1.0, 1.0, 1.0], PeriodicSite: Ge (3.028, 1.063, 1.343) [0.7536, 0.2541, 0.5078], PeriodicSite: Ge (0.5464, 3.163, 1.343) [0.2541, 0.7536, 0.5078], PeriodicSite: Ge (1.415, 1.673, 3.475) [0.3994, 0.3994, 0.7984], PeriodicSite: Pt (2.302, 2.721, -0.4412) [0.6484, 0.6484, 0.2971]]",108.86763422182199,"[Element Ba, Element Ge, Element Ge, Element Ge, Element Pt]",True,False,-0.632367121,0.0,0.0
1500,mp,mp-998762.cif,Mn1 Tl1 F3,MnTlF3,Cm,4.233687939534757,4.236250626987457,4.235429158556769,90.00372535545917,90.03225190715911,89.9966847985961,"(True, True, True)","[PeriodicSite: Mn (-1.754, -1.199, 3.031) [0.5119, 0.4998, 0.5022], PeriodicSite: Tl (-3.465, -2.423, 0.03381) [0.009323, 0.9981, 0.004985], PeriodicSite: F (-3.489, -2.415, 3.032) [0.5136, 1.0, 0.5025], PeriodicSite: F (-0.9041, -2.417, 1.526) [0.01233, 0.5022, 0.4986], PeriodicSite: F (-2.615, 0.0315, 1.535) [0.5129, 0.4998, 0.001712]]",75.96225372325313,"[Element Mn, Element Tl, Element F, Element F, Element F]",True,True,-2.5991811277528734,0.0,2.6304
1501,mp,mp-2647024.cif,Cs1 U1 Br3,CsUBr3,Pm-3m,5.786103,5.786103,5.786103,90.0,90.0,90.0,"(True, True, True)","[PeriodicSite: Cs (2.893, 2.893, 2.893) [0.5, 0.5, 0.5], PeriodicSite: U (0.0, 0.0, 0.0) [0.0, 0.0, 0.0], PeriodicSite: Br (0.0, 0.0, 2.893) [0.0, 0.0, 0.5], PeriodicSite: Br (0.0, 2.893, 0.0) [0.0, 0.5, 0.0], PeriodicSite: Br (2.893, 0.0, 0.0) [0.5, 0.0, 0.0]]",193.71287247911607,"[Element Cs, Element U, Element Br, Element Br, Element Br]",False,True,-1.5403968075862067,0.28575012699999824,0.0
1502,mp,mp-1433892.cif,Al1 Mo1 O3,AlMoO3,Pm-3m,4.007721,4.007721,4.007721,90.0,90.0,90.0,"(True, True, True)","[PeriodicSite: Al (0.0, 0.0, 0.0) [0.0, 0.0, 0.0], PeriodicSite: Mo (2.004, 2.004, 2.004) [0.5, 0.5, 0.5], PeriodicSite: O (2.004, 2.004, 0.0) [0.5, 0.5, 0.0], PeriodicSite: O (2.004, 0.0, 2.004) [0.5, 0.0, 0.5], PeriodicSite: O (0.0, 2.004, 2.004) [0.0, 0.5, 0.5]]",64.37132382637047,"[Element Al, Element Mo, Element O, Element O, Element O]",False,True,-1.4039612852499999,1.2197774297500015,0.0
1503,mp,mp-19257.cif,Sm1 Cr1 O3,SmCrO3,Pm-3m,3.877573,3.877573,3.877573,90.0,90.0,90.0,"(True, True, True)","[PeriodicSite: Sm (1.939, 1.939, 1.939) [0.5, 0.5, 0.5], PeriodicSite: Cr (0.0, 0.0, 0.0) [0.0, 0.0, 0.0], PeriodicSite: O (1.939, 0.0, 0.0) [0.5, 0.0, 0.0], PeriodicSite: O (0.0, 1.939, 0.0) [0.0, 0.5, 0.0], PeriodicSite: O (0.0, 0.0, 1.939) [0.0, 0.0, 0.5]]",58.30152946273373,"[Element Sm, Element Cr, Element O, Element O, Element O]",False,True,-2.9745535802500003,0.1972817555000006,1.7362000000000002
1504,mp,mp-1403003.cif,Tl1 Ni1 O3,TlNiO3,Cm,3.7858259632497635,3.7858259632497635,3.7980311388931502,89.80953028940853,89.80953028940853,90.22610265354992,"(True, True, True)","[PeriodicSite: Tl (0.0, 5.311, 3.797) [0.9907, 0.9907, 0.9997], PeriodicSite: Ni (0.0, 2.718, 1.935) [0.5069, 0.5069, 0.5095], PeriodicSite: O (0.0, 2.692, 0.04068) [0.5038, 0.5038, 0.01071], PeriodicSite: O (-1.404, 1.457, 1.94) [0.009112, 0.5327, 0.5109], PeriodicSite: O (1.404, 1.457, 1.94) [0.5327, 0.009112, 0.5109]]",54.434170789211265,"[Element Tl, Element Ni, Element O, Element O, Element O]",False,True,-0.6753179659166662,0.3658708138750004,0.0
1505,mp,mp-1417649.cif,Al1 W1 O3,AlWO3,Pm-3m,4.035564,4.035564,4.035564,90.0,90.0,90.0,"(True, True, True)","[PeriodicSite: Al (0.0, 0.0, 0.0) [0.0, 0.0, 0.0], PeriodicSite: W (2.018, 2.018, 2.018) [0.5, 0.5, 0.5], PeriodicSite: O (2.018, 2.018, 0.0) [0.5, 0.5, 0.0], PeriodicSite: O (2.018, 0.0, 2.018) [0.5, 0.0, 0.5], PeriodicSite: O (0.0, 2.018, 2.018) [0.0, 0.5, 0.5]]",65.72229455843149,"[Element Al, Element W, Element O, Element O, Element O]",False,True,-1.4520995452500003,1.1784392712499958,0.0
1506,mp,mp-998151.cif,Ca1 Tl1 Cl3,CaTlCl3,Cm,5.40007419609342,5.40007419609342,5.397680296140556,89.98658231962811,89.98658231962811,90.02388806487262,"(True, True, True)","[PeriodicSite: Ca (0.0, 3.86, 2.616) [0.5054, 0.5054, 0.4846], PeriodicSite: Tl (0.0, 0.05967, 0.01455) [0.007814, 0.007814, 0.002696], PeriodicSite: Cl (1.904, 1.94, 2.6) [0.5033, 0.00476, 0.4817], PeriodicSite: Cl (0.0, 3.766, 5.315) [0.493, 0.493, 0.9846], PeriodicSite: Cl (-1.904, 1.94, 2.6) [0.00476, 0.5033, 0.4817]]",157.40066040659985,"[Element Ca, Element Tl, Element Cl, Element Cl, Element Cl]",False,False,-2.1889205886666665,0.03875509699999924,4.1784
1507,mp,mp-16287.cif,Nd1 Rh3 C1,NdRh3C,Pm-3m,4.20689872,4.20689872,4.20689872,90.0,90.0,90.0,"(True, True, True)","[PeriodicSite: Nd (0.0, 0.0, 0.0) [-0.0, 0.0, 0.0], PeriodicSite: Rh (0.0, 2.103, 2.103) [-0.0, 0.5, 0.5], PeriodicSite: Rh (2.103, 2.103, 0.0) [0.5, 0.5, -0.0], PeriodicSite: Rh (2.103, 0.0, 2.103) [0.5, 0.0, 0.5], PeriodicSite: C (2.103, 2.103, 2.103) [0.5, 0.5, 0.5]]",74.45368025418045,"[Element Nd, Element Rh, Element Rh, Element Rh, Element C]",False,False,-0.38609776899999987,0.016713651833334175,0.0
1508,mp,mp-974061.cif,K1 Si1 O3,KSiO3,Pm-3m,3.683079,3.683079,3.683079,90.0,90.0,90.0,"(True, True, True)","[PeriodicSite: K (0.0, 0.0, 0.0) [0.0, 0.0, 0.0], PeriodicSite: Si (1.842, 1.842, 1.842) [0.5, 0.5, 0.5], PeriodicSite: O (1.842, 1.842, 0.0) [0.5, 0.5, 0.0], PeriodicSite: O (1.842, 0.0, 1.842) [0.5, 0.0, 0.5], PeriodicSite: O (0.0, 1.842, 1.842) [0.0, 0.5, 0.5]]",49.96122783985031,"[Element K, Element Si, Element O, Element O, Element O]",False,False,-2.1454421618500006,0.47001354312499544,0.0
1509,mp,mp-3717.cif,Lu1 B1 Rh3,LuBRh3,Pm-3m,4.13754512,4.13753698,4.13750443,90.0,90.0,90.0,"(True, True, True)","[PeriodicSite: Lu (0.0, 0.0, 0.0) [-0.0, 0.0, -0.0], PeriodicSite: B (2.069, 2.069, 2.069) [0.5, 0.5, 0.5], PeriodicSite: Rh (0.0, 2.069, 2.069) [-0.0, 0.5, 0.5], PeriodicSite: Rh (2.069, 2.069, 0.0) [0.5, 0.5, -0.0], PeriodicSite: Rh (2.069, 0.0, 2.069) [0.5, 0.0, 0.5]]",70.83095591674123,"[Element Lu, Element B, Element Rh, Element Rh, Element Rh]",True,False,-0.832442331833333,0.0,0.0
1510,mp,mp-1225592.cif,Dy1 Ga3 Cu1,DyGa3Cu,I-4m2,6.041687863254134,6.041687863254134,6.041687863254134,140.93963040666895,140.93963040666895,56.42934404991489,"(True, True, True)","[PeriodicSite: Dy (0.0, 0.0, 0.0) [0.0, 0.0, 0.0], PeriodicSite: Ga (0.0, 0.0, 6.531) [0.6134, 0.6134, 0.0], PeriodicSite: Ga (0.0, 0.0, 4.116) [0.3866, 0.3866, -0.0], PeriodicSite: Ga (0.0, 2.02, 2.662) [0.75, 0.25, 0.5], PeriodicSite: Cu (2.02, 0.0, 2.662) [0.25, 0.75, 0.5]]",86.87249651596551,"[Element Dy, Element Ga, Element Ga, Element Ga, Element Cu]",True,False,-0.4573024844999999,0.0,0.0
1511,mp,mp-5246.cif,K1 Nb1 O3,KNbO3,Amm2,4.00636436,4.071075481915448,4.0710768444288945,90.2036684350397,90.0,90.0,"(True, True, True)","[PeriodicSite: K (2.003, 2.085, 1.979) [0.5, 0.512, 0.488], PeriodicSite: Nb (0.0, -0.001474, 0.00148) [0.0, -0.0003622, 0.0003622], PeriodicSite: O (0.0, 2.173, 3.946) [0.0, 0.5334, 0.9713], PeriodicSite: O (0.0, 0.1175, 1.899) [0.0, 0.0287, 0.4666], PeriodicSite: O (2.003, 0.1409, 3.931) [0.5, 0.0343, 0.9657]]",66.39970574294573,"[Element K, Element Nb, Element O, Element O, Element O]",False,False,-2.8569506418499997,0.00013457000000016706,2.0585
1512,mp,mp-22979.cif,Ga1 Bi1 O3,GaBiO3,Pm-3m,3.894506,3.894506,3.894506,90.0,90.0,90.0,"(True, True, True)","[PeriodicSite: Ga (1.947, 1.947, 1.947) [0.5, 0.5, 0.5], PeriodicSite: Bi (0.0, 0.0, 0.0) [0.0, 0.0, 0.0], PeriodicSite: O (1.947, 0.0, 1.947) [0.5, 0.0, 0.5], PeriodicSite: O (1.947, 1.947, 0.0) [0.5, 0.5, 0.0], PeriodicSite: O (0.0, 1.947, 1.947) [0.0, 0.5, 0.5]]",59.0686617673901,"[Element Ga, Element Bi, Element O, Element O, Element O]",False,False,-1.7484672107500003,0.22570202249999927,1.2244000000000002
1513,mp,mp-1436662.cif,Y1 Ti1 O3,YTiO3,Pm-3m,3.89302,3.89302,3.89302,90.0,90.0,90.0,"(True, True, True)","[PeriodicSite: Y (0.0, 0.0, 0.0) [0.0, 0.0, 0.0], PeriodicSite: Ti (1.947, 1.947, 1.947) [0.5, 0.5, 0.5], PeriodicSite: O (1.947, 1.947, 0.0) [0.5, 0.5, 0.0], PeriodicSite: O (1.947, 0.0, 1.947) [0.5, 0.0, 0.5], PeriodicSite: O (0.0, 1.947, 1.947) [0.0, 0.5, 0.5]]",59.0010722886116,"[Element Y, Element Ti, Element O, Element O, Element O]",False,False,-3.3673045952500003,0.3027170202500038,0.0
1514,mp,mp-3271.cif,Ti3 Al1 C1,Ti3AlC,Pm-3m,4.16993733,4.16993733,4.16993733,90.0,90.0,90.0,"(True, True, True)","[PeriodicSite: Ti (2.085, 2.085, 0.0) [0.5, 0.5, 0.0], PeriodicSite: Ti (2.085, 0.0, 2.085) [0.5, 0.0, 0.5], PeriodicSite: Ti (0.0, 2.085, 2.085) [-0.0, 0.5, 0.5], PeriodicSite: Al (0.0, 0.0, 0.0) [0.0, 0.0, 0.0], PeriodicSite: C (2.085, 2.085, 2.085) [0.5, 0.5, 0.5]]",72.50844376204412,"[Element Ti, Element Ti, Element Ti, Element Al, Element C]",True,False,-0.5920629874999989,0.0,0.0
1515,mp,mp-8398.cif,Cs1 Yb1 F3,CsYbF3,Pm-3m,4.42616316,4.42616316,4.42616316,90.0,90.0,90.0,"(True, True, True)","[PeriodicSite: Cs (0.0, 0.0, 0.0) [-0.0, 0.0, 0.0], PeriodicSite: Yb (2.213, 2.213, 2.213) [0.5, 0.5, 0.5], PeriodicSite: F (0.0, 2.213, 2.213) [0.0, 0.5, 0.5], PeriodicSite: F (2.213, 0.0, 2.213) [0.5, 0.0, 0.5], PeriodicSite: F (2.213, 2.213, 0.0) [0.5, 0.5, 0.0]]",86.71260978619291,"[Element Cs, Element Yb, Element F, Element F, Element F]",True,False,-3.890551881086207,0.0,7.0604