,provider,id,Full_Formula,formula,space_group,a_lattice_param,b_lattice_param,c_lattice_param,aplha_degree,beta_degree,gamma_degree,pbc,sits,volume,species_at_sites,is_stable,is_magnetic,formation_energy,energy_above_hull,band_gap
859,mp,mp-1184799.cif,In1 Os1 O3,InOsO3,Pm-3m,3.973267,3.973267,3.973267,90.0,90.0,90.0,"(True, True, True)","[PeriodicSite: In (0.0, 0.0, 0.0) [0.0, 0.0, 0.0], PeriodicSite: Os (1.987, 1.987, 1.987) [0.5, 0.5, 0.5], PeriodicSite: O (1.987, 1.987, 0.0) [0.5, 0.5, 0.0], PeriodicSite: O (1.987, 0.0, 1.987) [0.5, 0.0, 0.5], PeriodicSite: O (0.0, 1.987, 1.987) [0.0, 0.5, 0.5]]",62.72537273464162,"[Element In, Element Os, Element O, Element O, Element O]",False,False,-1.1366457312500002,0.4671797329999938,0.0
860,mp,mp-1187485.cif,Yb1 W1 O3,YbWO3,Pm-3m,4.032246,4.032246,4.032246,90.0,90.0,90.0,"(True, True, True)","[PeriodicSite: Yb (0.0, 0.0, 0.0) [0.0, 0.0, 0.0], PeriodicSite: W (2.016, 2.016, 2.016) [0.5, 0.5, 0.5], PeriodicSite: O (2.016, 2.016, 0.0) [0.5, 0.5, 0.0], PeriodicSite: O (2.016, 0.0, 2.016) [0.5, 0.0, 0.5], PeriodicSite: O (0.0, 2.016, 2.016) [0.0, 0.5, 0.5]]",65.56031918372841,"[Element Yb, Element W, Element O, Element O, Element O]",False,True,-2.4522386272500016,0.22240986299999932,0.0
861,mp,mp-1187750.cif,V1 Os1 O3,VOsO3,Pm-3m,3.912223,3.912223,3.912223,90.0,90.0,90.0,"(True, True, True)","[PeriodicSite: V (0.0, 0.0, 0.0) [0.0, 0.0, 0.0], PeriodicSite: Os (1.956, 1.956, 1.956) [0.5, 0.5, 0.5], PeriodicSite: O (1.956, 1.956, 0.0) [0.5, 0.5, 0.0], PeriodicSite: O (1.956, 0.0, 1.956) [0.5, 0.0, 0.5], PeriodicSite: O (0.0, 1.956, 1.956) [0.0, 0.5, 0.5]]",59.878485316366636,"[Element V, Element Os, Element O, Element O, Element O]",False,True,-0.834353823250001,1.0575952330000034,0.0
862,mp,mp-1207135.cif,Gd3 Tl1 C1,Gd3TlC,Pm-3m,4.96836386,4.96836698,4.96837114,90.0,90.0,90.0,"(True, True, True)","[PeriodicSite: Gd (2.484, 0.0, 0.0) [0.5, -0.0, 0.0], PeriodicSite: Gd (0.0, 2.484, 0.0) [-0.0, 0.5, 0.0], PeriodicSite: Gd (0.0, 0.0, 2.484) [-0.0, 0.0, 0.5], PeriodicSite: Tl (2.484, 2.484, 2.484) [0.5, 0.5, 0.5], PeriodicSite: C (0.0, 0.0, 0.0) [0.0, -0.0, -0.0]]",122.64252723779084,"[Element Gd, Element Gd, Element Gd, Element Tl, Element C]",True,True,-0.417937774166667,0.0,0.0
863,mp,mp-1013533.cif,Ba3 P1 N1,Ba3PN,Pm-3m,5.450726,5.450726,5.450726,90.0,90.0,90.0,"(True, True, True)","[PeriodicSite: Ba (0.0, 2.725, 2.725) [0.0, 0.5, 0.5], PeriodicSite: Ba (2.725, 0.0, 2.725) [0.5, 0.0, 0.5], PeriodicSite: Ba (2.725, 2.725, 0.0) [0.5, 0.5, 0.0], PeriodicSite: P (0.0, 0.0, 0.0) [0.0, 0.0, 0.0], PeriodicSite: N (2.725, 2.725, 2.725) [0.5, 0.5, 0.5]]",161.94332566307529,"[Element Ba, Element Ba, Element Ba, Element P, Element N]",False,False,-0.6370673136666667,0.13941142733333312,0.0
864,mp,mp-1184032.cif,Ga1 Fe1 O3,GaFeO3,Pm-3m,3.784658,3.784658,3.784658,90.0,90.0,90.0,"(True, True, True)","[PeriodicSite: Ga (1.892, 1.892, 1.892) [0.5, 0.5, 0.5], PeriodicSite: Fe (0.0, 0.0, 0.0) [0.0, 0.0, 0.0], PeriodicSite: O (1.892, 1.892, 0.0) [0.5, 0.5, 0.0], PeriodicSite: O (1.892, 0.0, 1.892) [0.5, 0.0, 0.5], PeriodicSite: O (0.0, 1.892, 1.892) [0.0, 0.5, 0.5]]",54.210064246236215,"[Element Ga, Element Fe, Element O, Element O, Element O]",False,True,-1.0475474547499999,0.9412599324999995,0.0
865,mp,mp-1187905.cif,Yb1 Be1 O3,YbBeO3,Pm-3m,3.547431,3.547431,3.547431,90.0,90.0,90.0,"(True, True, True)","[PeriodicSite: Yb (0.0, 0.0, 0.0) [0.0, 0.0, 0.0], PeriodicSite: Be (1.774, 1.774, 1.774) [0.5, 0.5, 0.5], PeriodicSite: O (1.774, 1.774, 0.0) [0.5, 0.5, 0.0], PeriodicSite: O (1.774, 0.0, 1.774) [0.5, 0.0, 0.5], PeriodicSite: O (0.0, 1.774, 1.774) [0.0, 0.5, 0.5]]",44.64181780299987,"[Element Yb, Element Be, Element O, Element O, Element O]",False,True,-2.4498700102499997,0.24366642724999998,0.0
866,mp,mp-1184150.cif,Er1 Al1 O3,ErAlO3,Pm-3m,3.69546,3.69546,3.69546,90.0,90.0,90.0,"(True, True, True)","[PeriodicSite: Er (0.0, 0.0, 0.0) [0.0, 0.0, 0.0], PeriodicSite: Al (1.848, 1.848, 1.848) [0.5, 0.5, 0.5], PeriodicSite: O (1.848, 1.848, 0.0) [0.5, 0.5, 0.0], PeriodicSite: O (1.848, 0.0, 1.848) [0.5, 0.0, 0.5], PeriodicSite: O (0.0, 1.848, 1.848) [0.0, 0.5, 0.5]]",50.466770895183345,"[Element Er, Element Al, Element O, Element O, Element O]",False,False,-3.59588556725,0.18607017419997085,3.0097000000000005
867,mp,mp-1077622.cif,Eu1 Ag1 O3,EuAgO3,Pm-3m,4.089373,4.089373,4.089373,90.0,90.0,90.0,"(True, True, True)","[PeriodicSite: Eu (2.045, 2.045, 2.045) [0.5, 0.5, 0.5], PeriodicSite: Ag (0.0, 0.0, 0.0) [0.0, 0.0, 0.0], PeriodicSite: O (2.045, 0.0, 0.0) [0.5, 0.0, 0.0], PeriodicSite: O (0.0, 2.045, 0.0) [0.0, 0.5, 0.0], PeriodicSite: O (0.0, 0.0, 2.045) [0.0, 0.0, 0.5]]",68.38646826734634,"[Element Eu, Element Ag, Element O, Element O, Element O]",False,True,-1.5157242725833329,0.2666181239166674,0.0
868,mp,mp-1184033.cif,Ga1 Fe1 O3,GaFeO3,Pm-3m,3.811283,3.811283,3.811283,90.0,90.0,90.0,"(True, True, True)","[PeriodicSite: Ga (0.0, 0.0, 0.0) [0.0, 0.0, 0.0], PeriodicSite: Fe (1.906, 1.906, 1.906) [0.5, 0.5, 0.5], PeriodicSite: O (1.906, 1.906, 0.0) [0.5, 0.5, 0.0], PeriodicSite: O (1.906, 0.0, 1.906) [0.5, 0.0, 0.5], PeriodicSite: O (0.0, 1.906, 1.906) [0.0, 0.5, 0.5]]",55.3622322858092,"[Element Ga, Element Fe, Element O, Element O, Element O]",False,True,-1.01810317475,0.9707042124999994,0.0
869,mp,mp-1185008.cif,K1 Ac1 O3,KAcO3,Pm-3m,4.65408,4.65408,4.65408,90.0,90.0,90.0,"(True, True, True)","[PeriodicSite: K (0.0, 0.0, 0.0) [0.0, 0.0, 0.0], PeriodicSite: Ac (2.327, 2.327, 2.327) [0.5, 0.5, 0.5], PeriodicSite: O (2.327, 2.327, 0.0) [0.5, 0.5, 0.0], PeriodicSite: O (2.327, 0.0, 2.327) [0.5, 0.0, 0.5], PeriodicSite: O (0.0, 2.327, 2.327) [0.0, 0.5, 0.5]]",100.80951668519734,"[Element K, Element Ac, Element O, Element O, Element O]",False,False,-2.2175903463499997,0.20725115349999967,0.0
870,mp,mp-1186326.cif,Nd1 Re1 O3,NdReO3,Pm-3m,4.000753,4.000753,4.000753,90.0,90.0,90.0,"(True, True, True)","[PeriodicSite: Nd (0.0, 0.0, 0.0) [0.0, 0.0, 0.0], PeriodicSite: Re (2.0, 2.0, 2.0) [0.5, 0.5, 0.5], PeriodicSite: O (2.0, 2.0, 0.0) [0.5, 0.5, 0.0], PeriodicSite: O (2.0, 0.0, 2.0) [0.5, 0.0, 0.5], PeriodicSite: O (0.0, 2.0, 2.0) [0.0, 0.5, 0.5]]",64.03615080453494,"[Element Nd, Element Re, Element O, Element O, Element O]",False,True,-2.210747465750001,0.6071742596666674,0.0
871,mp,mp-1013708.cif,Ba3 Sb1 N1,Ba3SbN,Pm-3m,6.52,6.52,6.52,90.0,90.0,90.0,"(True, True, True)","[PeriodicSite: Ba (0.0, 3.26, 3.26) [0.0, 0.5, 0.5], PeriodicSite: Ba (3.26, 0.0, 3.26) [0.5, 0.0, 0.5], PeriodicSite: Ba (3.26, 3.26, 0.0) [0.5, 0.5, 0.0], PeriodicSite: Sb (3.26, 3.26, 3.26) [0.5, 0.5, 0.5], PeriodicSite: N (0.0, 0.0, 0.0) [0.0, 0.0, 0.0]]",277.167808,"[Element Ba, Element Ba, Element Ba, Element Sb, Element N]",False,False,0.4709476410000001,1.3969171510000007,0.0
872,mp,mp-1186126.cif,Na1 Co1 O3,NaCoO3,Pm-3m,3.763369,3.763369,3.763369,90.0,90.0,90.0,"(True, True, True)","[PeriodicSite: Na (0.0, 0.0, 0.0) [0.0, 0.0, 0.0], PeriodicSite: Co (1.882, 1.882, 1.882) [0.5, 0.5, 0.5], PeriodicSite: O (1.882, 1.882, 0.0) [0.5, 0.5, 0.0], PeriodicSite: O (1.882, 0.0, 1.882) [0.5, 0.0, 0.5], PeriodicSite: O (0.0, 1.882, 1.882) [0.0, 0.5, 0.5]]",53.30039279125477,"[Element Na, Element Co, Element O, Element O, Element O]",False,True,-1.0689929415603445,0.22220779325000084,0.0
873,mp,mp-1183415.cif,Be1 Ge1 O3,BeGeO3,Pm-3m,3.504888,3.504888,3.504888,90.0,90.0,90.0,"(True, True, True)","[PeriodicSite: Be (1.752, 1.752, 1.752) [0.5, 0.5, 0.5], PeriodicSite: Ge (0.0, 0.0, 0.0) [0.0, 0.0, 0.0], PeriodicSite: O (1.752, 1.752, 0.0) [0.5, 0.5, 0.0], PeriodicSite: O (1.752, 0.0, 1.752) [0.5, 0.0, 0.5], PeriodicSite: O (0.0, 1.752, 1.752) [0.0, 0.5, 0.5]]",43.05488498849875,"[Element Be, Element Ge, Element O, Element O, Element O]",False,False,-1.18893572525,1.3216731599999987,0.0
874,mp,mp-1068387.cif,La1 Ge3 Ru1,LaGe3Ru,I4mm,5.962249336578677,5.962249336578677,5.962249336578677,136.31166924263823,136.31166924263823,63.498856030107184,"(True, True, True)","[PeriodicSite: La (0.0, 0.0, 10.12) [0.9984, 0.9984, 0.0], PeriodicSite: Ge (0.0, 0.0, 4.31) [0.425, 0.425, -0.0], PeriodicSite: Ge (2.218, 0.0, 2.629) [0.2592, 0.7592, 0.5], PeriodicSite: Ge (0.0, 2.218, 2.629) [0.7592, 0.2592, 0.5], PeriodicSite: Ru (0.0, 0.0, 6.684) [0.6591, 0.6591, -0.0]]",99.80966338806229,"[Element La, Element Ge, Element Ge, Element Ge, Element Ru]",True,False,-0.6340819639999999,0.0,0.0
875,mp,mp-1222842.cif,La1 Ga3 Pd1,LaGa3Pd,I-4m2,6.125493243212332,6.125493243212332,6.125493243212332,138.892213078565,138.892213078565,59.539243728193995,"(True, True, True)","[PeriodicSite: La (0.0, 0.0, 0.0) [-0.0, -0.0, 0.0], PeriodicSite: Ga (0.0, 0.0, 6.577) [0.6185, 0.6185, 0.0], PeriodicSite: Ga (0.0, 0.0, 4.057) [0.3815, 0.3815, -0.0], PeriodicSite: Ga (0.0, 2.151, 2.659) [0.75, 0.25, 0.5], PeriodicSite: Pd (2.151, 0.0, 2.659) [0.25, 0.75, 0.5]]",98.36712809845439,"[Element La, Element Ga, Element Ga, Element Ga, Element Pd]",True,False,-0.7080610034999999,0.0,0.0
876,mp,mp-1187577.cif,Tm1 Cr1 O3,TmCrO3,Pm-3m,3.833663,3.833663,3.833663,90.0,90.0,90.0,"(True, True, True)","[PeriodicSite: Tm (0.0, 0.0, 0.0) [0.0, 0.0, 0.0], PeriodicSite: Cr (1.917, 1.917, 1.917) [0.5, 0.5, 0.5], PeriodicSite: O (1.917, 1.917, 0.0) [0.5, 0.5, 0.0], PeriodicSite: O (1.917, 0.0, 1.917) [0.5, 0.0, 0.5], PeriodicSite: O (0.0, 1.917, 1.917) [0.0, 0.5, 0.5]]",56.34323775911637,"[Element Tm, Element Cr, Element O, Element O, Element O]",False,True,-2.8505549325833344,0.398950168499999,1.9288999999999996
877,mp,mp-1183288.cif,Ba1 In1 O3,BaInO3,Pm-3m,4.285795,4.285795,4.285795,90.0,90.0,90.0,"(True, True, True)","[PeriodicSite: Ba (0.0, 0.0, 0.0) [0.0, 0.0, 0.0], PeriodicSite: In (2.143, 2.143, 2.143) [0.5, 0.5, 0.5], PeriodicSite: O (2.143, 2.143, 0.0) [0.5, 0.5, 0.0], PeriodicSite: O (2.143, 0.0, 2.143) [0.5, 0.0, 0.5], PeriodicSite: O (0.0, 2.143, 2.143) [0.0, 0.5, 0.5]]",78.72164877180886,"[Element Ba, Element In, Element O, Element O, Element O]",False,True,-2.1647075132499998,0.07720486475000055,0.0
878,mp,mp-1070301.cif,U1 Ga3 Ni1,UGa3Ni,I4mm,5.902001040392403,5.902001040392403,5.902001040392403,138.68792662485694,138.68792662485694,59.85102376172589,"(True, True, True)","[PeriodicSite: U (0.0, 0.0, 10.17) [0.9943, 0.9943, 0.0], PeriodicSite: Ga (0.0, 0.0, 4.191) [0.4096, 0.4096, 0.0], PeriodicSite: Ga (2.082, 2.22e-16, 2.518) [0.2461, 0.7461, 0.5], PeriodicSite: Ga (2.22e-16, 2.082, 2.518) [0.7461, 0.2461, 0.5], PeriodicSite: Ni (0.0, 0.0, 6.485) [0.6339, 0.6339, 0.0]]",88.68806150312868,"[Element U, Element Ga, Element Ga, Element Ga, Element Ni]",False,True,-0.27433143649999964,0.04369815066666849,0.0
879,mp,mp-1206912.cif,Lu3 Ga1 C1,Lu3GaC,Pm-3m,4.68574539,4.68574539,4.68574539,90.0,90.0,90.0,"(True, True, True)","[PeriodicSite: Lu (2.343, 0.0, 0.0) [0.5, -0.0, -0.0], PeriodicSite: Lu (0.0, 2.343, 0.0) [-0.0, 0.5, -0.0], PeriodicSite: Lu (0.0, 0.0, 2.343) [-0.0, -0.0, 0.5], PeriodicSite: Ga (2.343, 2.343, 2.343) [0.5, 0.5, 0.5], PeriodicSite: C (0.0, 0.0, 0.0) [-0.0, -0.0, -0.0]]",102.88120913292828,"[Element Lu, Element Lu, Element Lu, Element Ga, Element C]",True,False,-0.5458201809999992,0.0,0.0
880,mp,mp-1184965.cif,La1 Zn1 O3,LaZnO3,Pm-3m,3.9281,3.9281,3.9281,90.0,90.0,90.0,"(True, True, True)","[PeriodicSite: La (0.0, 0.0, 0.0) [0.0, 0.0, 0.0], PeriodicSite: Zn (1.964, 1.964, 1.964) [0.5, 0.5, 0.5], PeriodicSite: O (1.964, 1.964, 0.0) [0.5, 0.5, 0.0], PeriodicSite: O (1.964, 0.0, 1.964) [0.5, 0.0, 0.5], PeriodicSite: O (0.0, 1.964, 1.964) [0.0, 0.5, 0.5]]",60.61046362504101,"[Element La, Element Zn, Element O, Element O, Element O]",False,False,-2.523604560249999,0.1304627797500002,0.0
881,mp,mp-1183160.cif,Al1 In1 O3,AlInO3,Pm-3m,3.714679,3.714679,3.714679,90.0,90.0,90.0,"(True, True, True)","[PeriodicSite: Al (1.857, 1.857, 1.857) [0.5, 0.5, 0.5], PeriodicSite: In (0.0, 0.0, 0.0) [0.0, 0.0, 0.0], PeriodicSite: O (1.857, 1.857, 0.0) [0.5, 0.5, 0.0], PeriodicSite: O (1.857, 0.0, 1.857) [0.5, 0.0, 0.5], PeriodicSite: O (0.0, 1.857, 1.857) [0.0, 0.5, 0.5]]",51.258261443683864,"[Element Al, Element In, Element O, Element O, Element O]",False,False,-2.2447660292499996,0.46780454749999656,0.0
882,mp,mp-10275.cif,Er3 In1 C1,Er3InC,Pm-3m,5.533707,5.533707,5.533707,90.0,90.0,90.0,"(True, True, True)","[PeriodicSite: Er (0.0, 2.767, 2.767) [0.0, 0.5, 0.5], PeriodicSite: Er (2.767, 0.0, 2.767) [0.5, 0.0, 0.5], PeriodicSite: Er (2.767, 2.767, 0.0) [0.5, 0.5, 0.0], PeriodicSite: In (2.767, 2.767, 2.767) [0.5, 0.5, 0.5], PeriodicSite: C (0.0, 0.0, 0.0) [0.0, 0.0, 0.0]]",169.45269521711592,"[Element Er, Element Er, Element Er, Element In, Element C]",False,False,1.6082480924999998,1.9685486399999976,0.0
883,mp,mp-1187479.cif,Yb1 Ta1 O3,YbTaO3,Pm-3m,4.003324,4.003324,4.003324,90.0,90.0,90.0,"(True, True, True)","[PeriodicSite: Yb (0.0, 0.0, 0.0) [0.0, 0.0, 0.0], PeriodicSite: Ta (2.002, 2.002, 2.002) [0.5, 0.5, 0.5], PeriodicSite: O (2.002, 2.002, 0.0) [0.5, 0.5, 0.0], PeriodicSite: O (2.002, 0.0, 2.002) [0.5, 0.0, 0.5], PeriodicSite: O (0.0, 2.002, 2.002) [0.0, 0.5, 0.5]]",64.1596846244388,"[Element Yb, Element Ta, Element O, Element O, Element O]",False,False,-3.2950978012500003,0.025471072400005568,0.0
884,mp,mp-1186110.cif,Np1 Al1 O3,NpAlO3,Pm-3m,3.765853,3.765853,3.765853,90.0,90.0,90.0,"(True, True, True)","[PeriodicSite: Np (0.0, 0.0, 0.0) [0.0, 0.0, 0.0], PeriodicSite: Al (1.883, 1.883, 1.883) [0.5, 0.5, 0.5], PeriodicSite: O (1.883, 1.883, 0.0) [0.5, 0.5, 0.0], PeriodicSite: O (1.883, 0.0, 1.883) [0.5, 0.0, 0.5], PeriodicSite: O (0.0, 1.883, 1.883) [0.0, 0.5, 0.5]]",53.406004744739306,"[Element Np, Element Al, Element O, Element O, Element O]",False,True,-3.2918159630000003,0.04276479806249789,0.0
885,mp,mp-1080233.cif,Cs1 Sr1 Cl3,CsSrCl3,Cm,5.675257343218739,5.675257343218739,5.674353517979607,89.90271565695036,89.90271565695036,90.10731874842904,"(True, True, True)","[PeriodicSite: Cs (0.0, 8.002, 0.01712) [0.998, 0.998, 0.004078], PeriodicSite: Sr (0.0, 4.018, 2.906) [0.4999, 0.4999, 0.5127], PeriodicSite: Cl (-1.992, 1.997, 2.933) [1.663e-05, 0.4959, 0.5172], PeriodicSite: Cl (0.0, 4.065, 0.0714) [0.5069, 0.5069, 0.01312], PeriodicSite: Cl (1.992, 1.997, 2.933) [0.4959, 1.663e-05, 0.5172]]",182.76182731550747,"[Element Cs, Element Sr, Element Cl, Element Cl, Element Cl]",False,False,-2.65210065091954,0.012896943999999522,5.0049
886,mp,mp-1067925.cif,Sr1 Si3 Au1,SrSi3Au,I4mm,5.861096704670664,5.861096704670664,5.861096704670664,135.6158621219051,135.6158621219051,64.57478075641392,"(True, True, True)","[PeriodicSite: Sr (0.0, 0.0, 9.901) [0.9991, 0.9991, -0.0], PeriodicSite: Si (0.0, 0.0, 3.751) [0.3785, 0.3785, 0.0], PeriodicSite: Si (2.214, 2.22e-16, 2.535) [0.2558, 0.7558, 0.5], PeriodicSite: Si (2.22e-16, 2.214, 2.535) [0.7558, 0.2558, 0.5], PeriodicSite: Au (0.0, 0.0, 6.275) [0.6332, 0.6332, -0.0]]",97.13400905670049,"[Element Sr, Element Si, Element Si, Element Si, Element Au]",False,False,-0.3202363433333332,0.02053502099999971,0.0
887,mp,mp-1184204.cif,Er1 Ta1 O3,ErTaO3,Pm-3m,4.022902,4.022902,4.022902,90.0,90.0,90.0,"(True, True, True)","[PeriodicSite: Er (0.0, 0.0, 0.0) [0.0, 0.0, 0.0], PeriodicSite: Ta (2.011, 2.011, 2.011) [0.5, 0.5, 0.5], PeriodicSite: O (2.011, 2.011, 0.0) [0.5, 0.5, 0.0], PeriodicSite: O (2.011, 0.0, 2.011) [0.5, 0.0, 0.5], PeriodicSite: O (0.0, 2.011, 2.011) [0.0, 0.5, 0.5]]",65.10560203138375,"[Element Er, Element Ta, Element O, Element O, Element O]",False,False,-2.7875145912499995,0.7205442055999924,0.0
888,mp,mp-1186199.cif,Na1 Yb1 O3,NaYbO3,Pm-3m,4.427261,4.427261,4.427261,90.0,90.0,90.0,"(True, True, True)","[PeriodicSite: Na (0.0, 0.0, 0.0) [0.0, 0.0, 0.0], PeriodicSite: Yb (2.214, 2.214, 2.214) [0.5, 0.5, 0.5], PeriodicSite: O (2.214, 2.214, 0.0) [0.5, 0.5, 0.0], PeriodicSite: O (2.214, 0.0, 2.214) [0.5, 0.0, 0.5], PeriodicSite: O (0.0, 2.214, 2.214) [0.0, 0.5, 0.5]]",86.77714887933976,"[Element Na, Element Yb, Element O, Element O, Element O]",False,True,-1.4798619665603447,0.5207250500000002,0.0
889,mp,mp-1068732.cif,Th1 Si3 Ru1,ThSi3Ru,I4mm,5.785703975393872,5.785703975393872,5.785703975393872,137.13008712363472,137.13008712363472,62.23795768769944,"(True, True, True)","[PeriodicSite: Th (0.0, 0.0, 9.856) [0.995, 0.995, -0.0], PeriodicSite: Si (0.0, 0.0, 4.141) [0.418, 0.418, 0.0], PeriodicSite: Si (2.114, -2.22e-16, 2.604) [0.2629, 0.7629, 0.5], PeriodicSite: Si (-2.22e-16, 2.114, 2.604) [0.7629, 0.2629, 0.5], PeriodicSite: Ru (0.0, 0.0, 6.491) [0.6553, 0.6553, 0.0]]",88.57160814289362,"[Element Th, Element Si, Element Si, Element Si, Element Ru]",True,False,-0.743734646,0.0,0.0
890,mp,mp-1181635.cif,Fe1 Bi1 O3,FeBiO3,P4/mmm,6.220049513751237,5.521600696125536,4.465726156346468,90.19429885541882,134.14054172224303,89.72101114652958,"(True, True, True)","[PeriodicSite: Fe (-1.589, 1.596, 1.596) [0.0, 0.5, 0.0], PeriodicSite: Bi (0.0, 0.0, 0.0) [0.0, 0.0, 0.0], PeriodicSite: O (2.534, 1.258, 1.291) [0.5, 0.0, 0.0], PeriodicSite: O (-1.277, -1.767, 0.4824) [0.0, 0.0, 0.5], PeriodicSite: O (1.257, -0.5088, 1.774) [0.5, 0.0, 0.5]]",110.06483901965457,"[Element Fe, Element Bi, Element O, Element O, Element O]",False,True,0.41792140875,2.103003104999999,0.0
891,mp,mp-1068377.cif,Cs1 Eu1 Cl3,CsEuCl3,Pm-3m,5.63313725,5.6331414,5.6331414,90.0,90.0,90.0,"(True, True, True)","[PeriodicSite: Cs (0.0, 0.0, 0.0) [0.0, 0.0, 0.0], PeriodicSite: Eu (2.817, 2.817, 2.817) [0.5, 0.5, 0.5], PeriodicSite: Cl (2.817, 2.817, 0.0) [0.5, 0.5, 0.0], PeriodicSite: Cl (2.817, 0.0, 2.817) [0.5, 0.0, 0.5], PeriodicSite: Cl (0.0, 2.817, 2.817) [0.0, 0.5, 0.5]]",178.75229994418413,"[Element Cs, Element Eu, Element Cl, Element Cl, Element Cl]",False,True,-2.6044214235862073,1.1125926234999994,0.6374
892,mp,mp-1016902.cif,Zn1 Sn1 O3,ZnSnO3,Pm-3m,4.028889,4.028889,4.028889,90.0,90.0,90.0,"(True, True, True)","[PeriodicSite: Zn (0.0, 0.0, 0.0) [0.0, 0.0, 0.0], PeriodicSite: Sn (2.014, 2.014, 2.014) [0.5, 0.5, 0.5], PeriodicSite: O (2.014, 2.014, 0.0) [0.5, 0.5, 0.0], PeriodicSite: O (2.014, 0.0, 2.014) [0.5, 0.0, 0.5], PeriodicSite: O (0.0, 2.014, 2.014) [0.0, 0.5, 0.5]]",65.39671100186958,"[Element Zn, Element Sn, Element O, Element O, Element O]",False,False,-1.2687075302500006,0.7129046939999997,0.0
893,mp,mp-1068807.cif,Eu1 Si3 Rh1,EuSi3Rh,I4mm,5.770062404424383,5.770062404424383,5.770062404424383,137.19891269915738,137.19891269915738,62.13214337824961,"(True, True, True)","[PeriodicSite: Eu (0.0, 0.0, 0.02565) [0.002595, 0.002595, 0.0], PeriodicSite: Si (0.0, 0.0, 4.093) [0.4141, 0.4141, -0.0], PeriodicSite: Si (2.105, 0.0, 2.603) [0.2633, 0.7633, 0.5], PeriodicSite: Si (0.0, 2.105, 2.603) [0.7633, 0.2633, 0.5], PeriodicSite: Rh (0.0, 0.0, 6.471) [0.6546, 0.6546, 0.0]]",87.63534432378637,"[Element Eu, Element Si, Element Si, Element Si, Element Rh]",True,True,-0.7101807860000008,0.0,0.0
894,mp,mp-1206911.cif,Er1 Ru3 C1,ErRu3C,Pm-3m,4.12095413,4.12095413,4.12095413,90.0,90.0,90.0,"(True, True, True)","[PeriodicSite: Er (2.06, 2.06, 2.06) [0.5, 0.5, 0.5], PeriodicSite: Ru (2.06, 0.0, 0.0) [0.5, -0.0, -0.0], PeriodicSite: Ru (0.0, 2.06, 0.0) [-0.0, 0.5, -0.0], PeriodicSite: Ru (0.0, 0.0, 2.06) [0.0, -0.0, 0.5], PeriodicSite: C (0.0, 0.0, 0.0) [0.0, 0.0, 0.0]]",69.98312660578436,"[Element Er, Element Ru, Element Ru, Element Ru, Element C]",True,False,-0.24560733750000024,0.0,0.0
895,mp,mp-10611.cif,La3 Pb1 C1,La3PbC,Pm-3m,5.23916418,5.23915898,5.23918083,90.0,90.0,90.0,"(True, True, True)","[PeriodicSite: La (2.62, 0.0, 2.62) [0.5, -0.0, 0.5], PeriodicSite: La (0.0, 2.62, 2.62) [-0.0, 0.5, 0.5], PeriodicSite: La (2.62, 2.62, 0.0) [0.5, 0.5, 0.0], PeriodicSite: Pb (0.0, 0.0, 0.0) [0.0, -0.0, -0.0], PeriodicSite: C (2.62, 2.62, 2.62) [0.5, 0.5, 0.5]]",143.80930043641396,"[Element La, Element La, Element La, Element Pb, Element C]",True,False,-0.42848204249999994,0.0,0.0