,provider,id,Full_Formula,formula,space_group,a_lattice_param,b_lattice_param,c_lattice_param,aplha_degree,beta_degree,gamma_degree,pbc,sits,volume,species_at_sites,is_stable,is_magnetic,formation_energy,energy_above_hull,band_gap
1406,mp,mp-976293.cif,Na1 Cd1 O3,NaCdO3,Pm-3m,4.256636,4.256636,4.256636,90.0,90.0,90.0,"(True, True, True)","[PeriodicSite: Na (2.128, 2.128, 2.128) [0.5, 0.5, 0.5], PeriodicSite: Cd (0.0, 0.0, 0.0) [0.0, 0.0, 0.0], PeriodicSite: O (0.0, 0.0, 2.128) [0.0, 0.0, 0.5], PeriodicSite: O (0.0, 2.128, 0.0) [0.0, 0.5, 0.0], PeriodicSite: O (2.128, 0.0, 0.0) [0.5, 0.0, 0.0]]",77.1257750075502,"[Element Na, Element Cd, Element O, Element O, Element O]",False,True,-0.6201900205603451,0.474396421999999,0.0
1407,mp,mp-18841.cif,La1 Cr1 O3,LaCrO3,Pm-3m,3.927151,3.927151,3.927151,90.0,90.0,90.0,"(True, True, True)","[PeriodicSite: La (1.964, 1.964, 1.964) [0.5, 0.5, 0.5], PeriodicSite: Cr (0.0, 0.0, 0.0) [0.0, 0.0, 0.0], PeriodicSite: O (1.964, 0.0, 0.0) [0.5, 0.0, 0.0], PeriodicSite: O (0.0, 1.964, 0.0) [0.0, 0.5, 0.0], PeriodicSite: O (0.0, 0.0, 1.964) [0.0, 0.0, 0.5]]",60.56654511365902,"[Element La, Element Cr, Element O, Element O, Element O]",False,True,-3.105929896250001,0.09145682449999981,1.9038999999999993
1408,mp,mp-3693.cif,Ho1 B1 Pd3,HoBPd3,Pm-3m,4.312194,4.312194,4.312194,90.0,90.0,90.0,"(True, True, True)","[PeriodicSite: Ho (0.0, 0.0, 0.0) [0.0, 0.0, 0.0], PeriodicSite: B (2.156, 2.156, 2.156) [0.5, 0.5, 0.5], PeriodicSite: Pd (0.0, 2.156, 2.156) [0.0, 0.5, 0.5], PeriodicSite: Pd (2.156, 2.156, 0.0) [0.5, 0.5, 0.0], PeriodicSite: Pd (2.156, 0.0, 2.156) [0.5, 0.0, 0.5]]",80.1853211410746,"[Element Ho, Element B, Element Pd, Element Pd, Element Pd]",False,False,-0.6309744998333329,0.11294318209091081,0.0
1409,mp,mp-975347.cif,Nd1 Ge1 O3,NdGeO3,Pm-3m,3.96845,3.96845,3.96845,90.0,90.0,90.0,"(True, True, True)","[PeriodicSite: Nd (0.0, 0.0, 0.0) [0.0, 0.0, 0.0], PeriodicSite: Ge (1.984, 1.984, 1.984) [0.5, 0.5, 0.5], PeriodicSite: O (1.984, 1.984, 0.0) [0.5, 0.5, 0.0], PeriodicSite: O (1.984, 0.0, 1.984) [0.5, 0.0, 0.5], PeriodicSite: O (0.0, 1.984, 1.984) [0.0, 0.5, 0.5]]",62.49751342505111,"[Element Nd, Element Ge, Element O, Element O, Element O]",False,False,-2.4921764997499998,0.45550857174999493,0.0
1410,mp,mp-580234.cif,Fe3 Rh1 N1,Fe3RhN,Pm-3m,3.83973055,3.83963097,3.83894589,90.0,90.0,90.0,"(True, True, True)","[PeriodicSite: Fe (0.0, 1.92, 1.919) [0.0, 0.5, 0.5], PeriodicSite: Fe (1.92, 1.92, 0.0) [0.5, 0.5, 0.0], PeriodicSite: Fe (1.92, 0.0, 1.919) [0.5, 0.0, 0.5], PeriodicSite: Rh (0.0, 0.0, 0.0) [0.0, 0.0, -0.0], PeriodicSite: N (1.92, 1.92, 1.919) [0.5, 0.5, 0.5]]",56.59814871105021,"[Element Fe, Element Fe, Element Fe, Element Rh, Element N]",True,True,-0.14646264900000006,0.0,0.0
1411,mp,mp-998198.cif,Rb1 Ca1 Br3,RbCaBr3,Cm,5.743071220716751,5.743071220716751,5.740425791216276,89.93769462248768,89.93769462248768,90.02605915489691,"(True, True, True)","[PeriodicSite: Rb (0.0, 0.0221, 5.73) [0.001636, 0.001636, 0.9981], PeriodicSite: Ca (0.0, 4.104, 2.773) [0.5049, 0.5049, 0.483], PeriodicSite: Br (2.043, 2.058, 2.789) [0.5044, 0.001539, 0.4858], PeriodicSite: Br (0.0, 4.006, 5.648) [0.4923, 0.4923, 0.984], PeriodicSite: Br (-2.043, 2.058, 2.789) [0.001539, 0.5044, 0.4858]]",189.3354570837068,"[Element Rb, Element Ca, Element Br, Element Br, Element Br]",False,False,-2.3103129494999997,0.024158729999999906,4.0722
1412,mp,mp-569875.cif,Sc1 B1 Rh3,ScBRh3,Pm-3m,4.09667077,4.09667077,4.09667077,90.0,90.0,90.0,"(True, True, True)","[PeriodicSite: Sc (0.0, 0.0, 0.0) [0.0, 0.0, 0.0], PeriodicSite: B (2.048, 2.048, 2.048) [0.5, 0.5, 0.5], PeriodicSite: Rh (0.0, 2.048, 2.048) [-0.0, 0.5, 0.5], PeriodicSite: Rh (2.048, 0.0, 2.048) [0.5, -0.0, 0.5], PeriodicSite: Rh (2.048, 2.048, 0.0) [0.5, 0.5, -0.0]]",68.75324322460001,"[Element Sc, Element B, Element Rh, Element Rh, Element Rh]",True,False,-0.7533863268333334,0.0,0.0
1413,mp,mp-571330.cif,Nd3 Al1 C1,Nd3AlC,Pm-3m,5.100122,5.100122,5.100122,90.0,90.0,90.0,"(True, True, True)","[PeriodicSite: Nd (2.55, 2.55, 0.0) [0.5, 0.5, 0.0], PeriodicSite: Nd (2.55, 0.0, 2.55) [0.5, 0.0, 0.5], PeriodicSite: Nd (0.0, 2.55, 2.55) [0.0, 0.5, 0.5], PeriodicSite: Al (0.0, 0.0, 0.0) [0.0, 0.0, 0.0], PeriodicSite: C (2.55, 2.55, 2.55) [0.5, 0.5, 0.5]]",132.660519887727,"[Element Nd, Element Nd, Element Nd, Element Al, Element C]",False,False,-0.1861284640000001,0.026321534000000923,0.0
1414,mp,mp-972839.cif,Si1 B1 O3,SiBO3,Pm-3m,3.502656,3.502656,3.502656,90.0,90.0,90.0,"(True, True, True)","[PeriodicSite: Si (0.0, 0.0, 0.0) [0.0, 0.0, 0.0], PeriodicSite: B (1.751, 1.751, 1.751) [0.5, 0.5, 0.5], PeriodicSite: O (0.0, 0.0, 1.751) [0.0, 0.0, 0.5], PeriodicSite: O (0.0, 1.751, 0.0) [0.0, 0.5, 0.0], PeriodicSite: O (1.751, 0.0, 0.0) [0.5, 0.0, 0.0]]",42.97268208926432,"[Element Si, Element B, Element O, Element O, Element O]",False,False,-1.0003435730833332,1.9055840889791815,0.0
1415,mp,mp-22350.cif,Nd3 Sn1 N1,Nd3SnN,Pm-3m,5.83455,5.83455,5.83455,90.0,90.0,90.0,"(True, True, True)","[PeriodicSite: Nd (2.917, 0.0, 2.917) [0.5, 0.0, 0.5], PeriodicSite: Nd (2.917, 2.917, 0.0) [0.5, 0.5, 0.0], PeriodicSite: Nd (0.0, 2.917, 2.917) [0.0, 0.5, 0.5], PeriodicSite: Sn (2.917, 2.917, 2.917) [0.5, 0.5, 0.5], PeriodicSite: N (0.0, 0.0, 0.0) [0.0, 0.0, 0.0]]",198.6195976659214,"[Element Nd, Element Nd, Element Nd, Element Sn, Element N]",False,False,1.1160702635,2.138240164,0.0
1416,mp,mp-4551.cif,Sr1 Hf1 O3,SrHfO3,Pm-3m,4.141206,4.141206,4.141206,90.0,90.0,90.0,"(True, True, True)","[PeriodicSite: Sr (2.071, 2.071, 2.071) [0.5, 0.5, 0.5], PeriodicSite: Hf (0.0, 0.0, 0.0) [0.0, 0.0, 0.0], PeriodicSite: O (0.0, 2.071, 0.0) [0.0, 0.5, 0.0], PeriodicSite: O (0.0, 0.0, 2.071) [0.0, 0.0, 0.5], PeriodicSite: O (2.071, 0.0, 0.0) [0.5, 0.0, 0.0]]",71.01997313864919,"[Element Sr, Element Hf, Element O, Element O, Element O]",False,False,-3.780757668583333,0.03295755899999975,3.7226
1417,mp,mp-976722.cif,Mg1 Pb1 O3,MgPbO3,Pm-3m,3.980508,3.980508,3.980508,90.0,90.0,90.0,"(True, True, True)","[PeriodicSite: Mg (0.0, 0.0, 0.0) [0.0, 0.0, 0.0], PeriodicSite: Pb (1.99, 1.99, 1.99) [0.5, 0.5, 0.5], PeriodicSite: O (0.0, 0.0, 1.99) [0.0, 0.0, 0.5], PeriodicSite: O (0.0, 1.99, 0.0) [0.0, 0.5, 0.0], PeriodicSite: O (1.99, 0.0, 0.0) [0.5, 0.0, 0.0]]",63.068935851015254,"[Element Mg, Element Pb, Element O, Element O, Element O]",False,True,-1.5011783952499997,0.5007348610000015,0.0
1418,mp,mp-975387.cif,Rb1 Ba1 O3,RbBaO3,Pm-3m,4.995185,4.995185,4.995185,90.0,90.0,90.0,"(True, True, True)","[PeriodicSite: Rb (0.0, 0.0, 0.0) [0.0, 0.0, 0.0], PeriodicSite: Ba (2.498, 2.498, 2.498) [0.5, 0.5, 0.5], PeriodicSite: O (2.498, 2.498, 0.0) [0.5, 0.5, 0.0], PeriodicSite: O (2.498, 0.0, 2.498) [0.5, 0.0, 0.5], PeriodicSite: O (0.0, 2.498, 2.498) [0.0, 0.5, 0.5]]",124.63922265174297,"[Element Rb, Element Ba, Element O, Element O, Element O]",False,True,-1.28024905275,0.5158273460000009,0.0
1419,mp,mp-998420.cif,K1 Cr1 Cl3,KCrCl3,P4mm,4.97792,4.97792,4.970616,90.0,90.0,90.0,"(True, True, True)","[PeriodicSite: K (0.0, 0.0, 4.955) [0.0, 0.0, 0.9968], PeriodicSite: Cr (2.489, 2.489, 2.411) [0.5, 0.5, 0.4851], PeriodicSite: Cl (2.489, 0.0, 2.413) [0.5, 0.0, 0.4854], PeriodicSite: Cl (2.489, 2.489, 4.896) [0.5, 0.5, 0.985], PeriodicSite: Cl (0.0, 2.489, 2.413) [0.0, 0.5, 0.4854]]",123.17031129372425,"[Element K, Element Cr, Element Cl, Element Cl, Element Cl]",False,True,-1.7308360485999998,0.022692162000000238,0.0
1420,mp,mp-541365.cif,Li1 Eu1 H3,LiEuH3,Pm-3m,3.71667895,3.71671165,3.71667895,90.0,90.0,90.0,"(True, True, True)","[PeriodicSite: Li (1.858, 1.858, 1.858) [0.5, 0.5, 0.5], PeriodicSite: Eu (0.0, 0.0, 0.0) [0.0, -0.0, -0.0], PeriodicSite: H (0.0, 1.858, 1.858) [0.0, 0.5, 0.5], PeriodicSite: H (1.858, 1.858, 0.0) [0.5, 0.5, 0.0], PeriodicSite: H (1.858, 0.0, 1.858) [0.5, -0.0, 0.5]]",51.341548704283774,"[Element Li, Element Eu, Element H, Element H, Element H]",True,True,-0.6192481396666665,0.0,0.0
1421,mp,mp-754678.cif,Ba1 Ta1 O3,BaTaO3,Pm-3m,4.130846,4.130846,4.130846,90.0,90.0,90.0,"(True, True, True)","[PeriodicSite: Ba (0.0, 0.0, 0.0) [0.0, 0.0, 0.0], PeriodicSite: Ta (2.065, 2.065, 2.065) [0.5, 0.5, 0.5], PeriodicSite: O (0.0, 2.065, 2.065) [0.0, 0.5, 0.5], PeriodicSite: O (2.065, 0.0, 2.065) [0.5, 0.0, 0.5], PeriodicSite: O (2.065, 2.065, 0.0) [0.5, 0.5, 0.0]]",70.48829628052674,"[Element Ba, Element Ta, Element O, Element O, Element O]",False,False,-3.2716844532500007,0.032191652800008796,0.0
1422,mp,mp-976185.cif,Na1 Be1 O3,NaBeO3,Pm-3m,3.589369,3.589369,3.589369,90.0,90.0,90.0,"(True, True, True)","[PeriodicSite: Na (0.0, 0.0, 0.0) [0.0, 0.0, 0.0], PeriodicSite: Be (1.795, 1.795, 1.795) [0.5, 0.5, 0.5], PeriodicSite: O (1.795, 1.795, 0.0) [0.5, 0.5, 0.0], PeriodicSite: O (1.795, 0.0, 1.795) [0.5, 0.0, 0.5], PeriodicSite: O (0.0, 1.795, 1.795) [0.0, 0.5, 0.5]]",46.24388611464273,"[Element Na, Element Be, Element O, Element O, Element O]",False,True,-1.3305830255603452,0.45926111300000017,0.0
1423,mp,mp-998605.cif,Rb1 Pb1 Cl3,RbPbCl3,Cm,5.717154663413087,5.717154663413087,5.713945627305356,89.90838682999274,89.90838682999274,90.07350048948399,"(True, True, True)","[PeriodicSite: Rb (0.0, 0.05504, 5.707) [0.005214, 0.005214, 0.9989], PeriodicSite: Pb (0.0, 4.08, 2.775) [0.5041, 0.5041, 0.4857], PeriodicSite: Cl (2.03, 2.064, 2.763) [0.5056, 0.003801, 0.4835], PeriodicSite: Cl (0.0, 3.989, 5.627) [0.4921, 0.4921, 0.9848], PeriodicSite: Cl (-2.03, 2.064, 2.763) [0.003801, 0.5056, 0.4835]]",186.76458044490604,"[Element Rb, Element Pb, Element Cl, Element Cl, Element Cl]",False,False,-1.8286296054999993,0.038132586000000135,2.1948
1424,mp,mp-998160.cif,Tl1 Co1 F3,TlCoF3,Pm-3m,4.200322,4.200322,4.200322,90.0,90.0,90.0,"(True, True, True)","[PeriodicSite: Tl (0.0, 0.0, 0.0) [0.0, 0.0, 0.0], PeriodicSite: Co (2.1, 2.1, 2.1) [0.5, 0.5, 0.5], PeriodicSite: F (0.0, 2.1, 2.1) [0.0, 0.5, 0.5], PeriodicSite: F (2.1, 0.0, 2.1) [0.5, 0.0, 0.5], PeriodicSite: F (2.1, 2.1, 0.0) [0.5, 0.5, 0.0]]",74.10504154645177,"[Element Tl, Element Co, Element F, Element F, Element F]",False,True,-2.0012244451666676,0.1964791134999997,0.0
1425,mp,mp-22958.cif,K1 Br1 O3,KBrO3,R3m,4.394010314775126,4.394010476012435,4.394009925667468,85.10928318798958,85.10928450056518,85.10928800253501,"(True, True, True)","[PeriodicSite: K (0.07382, 0.06915, 0.07916) [0.0156, 0.0156, 0.0156], PeriodicSite: Br (2.393, 2.242, 2.566) [0.5057, 0.5057, 0.5057], PeriodicSite: O (0.7507, 2.508, 2.737) [0.1257, 0.569, 0.569], PeriodicSite: O (2.678, 2.508, 0.9397) [0.569, 0.569, 0.1257], PeriodicSite: O (2.552, 0.5855, 2.737) [0.569, 0.1257, 0.569]]",83.95967616702733,"[Element K, Element Br, Element O, Element O, Element O]",True,False,-1.06637582185,0.0,3.8569
1426,mp,mp-975443.cif,In1 Cu1 O3,InCuO3,Pm-3m,3.787341,3.787341,3.787341,90.0,90.0,90.0,"(True, True, True)","[PeriodicSite: In (0.0, 0.0, 0.0) [0.0, 0.0, 0.0], PeriodicSite: Cu (1.894, 1.894, 1.894) [0.5, 0.5, 0.5], PeriodicSite: O (1.894, 1.894, 0.0) [0.5, 0.5, 0.0], PeriodicSite: O (1.894, 0.0, 1.894) [0.5, 0.0, 0.5], PeriodicSite: O (0.0, 1.894, 1.894) [0.0, 0.5, 0.5]]",54.3254369445951,"[Element In, Element Cu, Element O, Element O, Element O]",False,False,-0.9082496812499997,0.5076098956250004,0.0
1427,mp,mp-21028.cif,Er3 Tl1 C1,Er3TlC,Pm-3m,5.566596,5.566596,5.566596,90.0,90.0,90.0,"(True, True, True)","[PeriodicSite: Er (0.0, 2.783, 2.783) [0.0, 0.5, 0.5], PeriodicSite: Er (2.783, 2.783, 0.0) [0.5, 0.5, 0.0], PeriodicSite: Er (2.783, 0.0, 2.783) [0.5, 0.0, 0.5], PeriodicSite: Tl (2.783, 2.783, 2.783) [0.5, 0.5, 0.5], PeriodicSite: C (0.0, 0.0, 0.0) [0.0, 0.0, 0.0]]",172.49206030413646,"[Element Er, Element Er, Element Er, Element Tl, Element C]",False,False,1.6280062898333334,1.9426655439999978,0.0
1428,mp,mp-675295.cif,In1 P1 F3,InPF3,R3,5.179715066451532,5.179715066451532,5.179714937745995,73.04333639509571,73.04333639509571,73.04333687373018,"(True, True, True)","[PeriodicSite: In (4.883, 0.0, 2.309) [0.4785, 0.4785, 0.4785], PeriodicSite: P (0.06062, 0.0, 0.02867) [0.00594, 0.00594, 0.00594], PeriodicSite: F (3.842, 1.297, 0.25) [0.2394, 0.6602, 0.05179], PeriodicSite: F (3.414, -1.875, 1.156) [0.6602, 0.05179, 0.2394], PeriodicSite: F (2.453, 0.5784, 3.186) [0.05179, 0.2394, 0.6602]]",123.86473498463428,"[Element In, Element P, Element F, Element F, Element F]",False,True,-1.6280682981666665,0.6396171793333325,1.2253000000000003
1429,mp,mp-3591.cif,Nd1 B1 Rh3,NdBRh3,Pm-3m,4.23316728,4.2331642,4.23312733,90.0,90.0,90.0,"(True, True, True)","[PeriodicSite: Nd (0.0, 0.0, 0.0) [-0.0, -0.0, -0.0], PeriodicSite: B (2.117, 2.117, 2.117) [0.5, 0.5, 0.5], PeriodicSite: Rh (0.0, 2.117, 2.117) [-0.0, 0.5, 0.5], PeriodicSite: Rh (2.117, 2.117, 0.0) [0.5, 0.5, -0.0], PeriodicSite: Rh (2.117, 0.0, 2.117) [0.5, 0.0, 0.5]]",75.8563387221127,"[Element Nd, Element B, Element Rh, Element Rh, Element Rh]",True,True,-0.6962872313333335,0.0,0.0
1430,mp,mp-975421.cif,Rb1 Ag1 O3,RbAgO3,Pm-3m,4.255792,4.255792,4.255792,90.0,90.0,90.0,"(True, True, True)","[PeriodicSite: Rb (0.0, 0.0, 0.0) [0.0, 0.0, 0.0], PeriodicSite: Ag (2.128, 2.128, 2.128) [0.5, 0.5, 0.5], PeriodicSite: O (2.128, 2.128, 0.0) [0.5, 0.5, 0.0], PeriodicSite: O (2.128, 0.0, 2.128) [0.5, 0.0, 0.5], PeriodicSite: O (0.0, 2.128, 2.128) [0.0, 0.5, 0.5]]",77.07990692192173,"[Element Rb, Element Ag, Element O, Element O, Element O]",False,True,-0.4565752480833332,0.35345760225000067,0.0
1431,mp,mp-22519.cif,Ce1 Rh3 C1,CeRh3C,Pm-3m,4.228548,4.228548,4.228548,90.0,90.0,90.0,"(True, True, True)","[PeriodicSite: Ce (0.0, 0.0, 0.0) [0.0, 0.0, 0.0], PeriodicSite: Rh (0.0, 2.114, 2.114) [0.0, 0.5, 0.5], PeriodicSite: Rh (2.114, 2.114, 0.0) [0.5, 0.5, 0.0], PeriodicSite: Rh (2.114, 0.0, 2.114) [0.5, 0.0, 0.5], PeriodicSite: C (2.114, 2.114, 2.114) [0.5, 0.5, 0.5]]",75.6090522789165,"[Element Ce, Element Rh, Element Rh, Element Rh, Element C]",False,True,-0.3618790864999994,0.1457306565000005,0.0
1432,mp,mp-567939.cif,Cs1 Sm1 Cl3,CsSmCl3,Pm-3m,5.499794,5.499794,5.499794,90.0,90.0,90.0,"(True, True, True)","[PeriodicSite: Cs (0.0, 0.0, 0.0) [0.0, 0.0, 0.0], PeriodicSite: Sm (2.75, 2.75, 2.75) [0.5, 0.5, 0.5], PeriodicSite: Cl (0.0, 2.75, 2.75) [0.0, 0.5, 0.5], PeriodicSite: Cl (2.75, 2.75, 0.0) [0.5, 0.5, 0.0], PeriodicSite: Cl (2.75, 0.0, 2.75) [0.5, 0.0, 0.5]]",166.35630620018523,"[Element Cs, Element Sm, Element Cl, Element Cl, Element Cl]",False,False,-2.2894076425862067,0.11618179400000006,0.0
1433,mp,mp-979436.cif,Y1 Os1 O3,YOsO3,Pm-3m,3.964378,3.964378,3.964378,90.0,90.0,90.0,"(True, True, True)","[PeriodicSite: Y (0.0, 0.0, 0.0) [0.0, 0.0, 0.0], PeriodicSite: Os (1.982, 1.982, 1.982) [0.5, 0.5, 0.5], PeriodicSite: O (1.982, 1.982, 0.0) [0.5, 0.5, 0.0], PeriodicSite: O (1.982, 0.0, 1.982) [0.5, 0.0, 0.5], PeriodicSite: O (0.0, 1.982, 1.982) [0.0, 0.5, 0.5]]",62.30532592089454,"[Element Y, Element Os, Element O, Element O, Element O]",False,False,-1.8561328165833344,0.7346209898750011,0.0
1434,mp,mp-981132.cif,Tb1 Ge1 O3,TbGeO3,Pm-3m,3.915811,3.915811,3.915811,90.0,90.0,90.0,"(True, True, True)","[PeriodicSite: Tb (1.958, 1.958, 1.958) [0.5, 0.5, 0.5], PeriodicSite: Ge (0.0, 0.0, 0.0) [0.0, 0.0, 0.0], PeriodicSite: O (0.0, 0.0, 1.958) [0.0, 0.0, 0.5], PeriodicSite: O (0.0, 1.958, 0.0) [0.0, 0.5, 0.0], PeriodicSite: O (1.958, 0.0, 0.0) [0.5, 0.0, 0.0]]",60.04338473889156,"[Element Tb, Element Ge, Element O, Element O, Element O]",False,False,-2.40259805025,0.6164286589062513,0.0
1435,mp,mp-566131.cif,K1 Cr1 F3,KCrF3,P4/mmm,4.09361,4.09361,4.600637,90.0,90.0,90.0,"(True, True, True)","[PeriodicSite: K (2.047, 2.047, 2.3) [0.5, 0.5, 0.5], PeriodicSite: Cr (0.0, 0.0, 0.0) [0.0, 0.0, 0.0], PeriodicSite: F (0.0, 0.0, 2.3) [0.0, 0.0, 0.5], PeriodicSite: F (0.0, 2.047, 0.0) [0.0, 0.5, 0.0], PeriodicSite: F (2.047, 0.0, 0.0) [0.5, 0.0, 0.0]]",77.09583164614405,"[Element K, Element Cr, Element F, Element F, Element F]",False,True,-2.9069775221,0.026813247999999845,0.7059000000000002
1436,mp,mp-866030.cif,Eu1 Si1 O3,EuSiO3,Pm-3m,3.717735,3.717735,3.717735,90.0,90.0,90.0,"(True, True, True)","[PeriodicSite: Eu (1.859, 1.859, 1.859) [0.5, 0.5, 0.5], PeriodicSite: Si (0.0, 0.0, 0.0) [0.0, 0.0, 0.0], PeriodicSite: O (0.0, 0.0, 1.859) [0.0, 0.0, 0.5], PeriodicSite: O (0.0, 1.859, 0.0) [0.0, 0.5, 0.0], PeriodicSite: O (1.859, 0.0, 0.0) [0.5, 0.0, 0.0]]",51.38487331369103,"[Element Eu, Element Si, Element O, Element O, Element O]",False,True,-3.07824066325,0.2542877045000047,0.0
1437,mp,mp-567703.cif,Fe3 Ni1 N1,Fe3NiN,Pm-3m,3.774044,3.774044,3.774044,90.0,90.0,90.0,"(True, True, True)","[PeriodicSite: Fe (0.0, 1.887, 1.887) [0.0, 0.5, 0.5], PeriodicSite: Fe (1.887, 0.0, 1.887) [0.5, 0.0, 0.5], PeriodicSite: Fe (1.887, 1.887, 0.0) [0.5, 0.5, 0.0], PeriodicSite: Ni (0.0, 0.0, 0.0) [0.0, 0.0, 0.0], PeriodicSite: N (1.887, 1.887, 1.887) [0.5, 0.5, 0.5]]",53.75524893195147,"[Element Fe, Element Fe, Element Fe, Element Ni, Element N]",False,True,-0.12675144499999788,0.026355179500001213,0.0
1438,mp,mp-867195.cif,Sr1 Os1 O3,SrOsO3,Pm-3m,3.992358,3.992358,3.992358,90.0,90.0,90.0,"(True, True, True)","[PeriodicSite: Sr (0.0, 0.0, 0.0) [0.0, 0.0, 0.0], PeriodicSite: Os (1.996, 1.996, 1.996) [0.5, 0.5, 0.5], PeriodicSite: O (1.996, 1.996, 0.0) [0.5, 0.5, 0.0], PeriodicSite: O (1.996, 0.0, 1.996) [0.5, 0.0, 0.5], PeriodicSite: O (0.0, 1.996, 1.996) [0.0, 0.5, 0.5]]",63.63388435567394,"[Element Sr, Element Os, Element O, Element O, Element O]",False,True,-2.0677133705833333,0.0969186678181817,0.0
1439,mp,mp-19836.cif,Tb3 Tl1 C1,Tb3TlC,Pm-3m,5.640493,5.640493,5.640493,90.0,90.0,90.0,"(True, True, True)","[PeriodicSite: Tb (0.0, 2.82, 2.82) [0.0, 0.5, 0.5], PeriodicSite: Tb (2.82, 2.82, 0.0) [0.5, 0.5, 0.0], PeriodicSite: Tb (2.82, 0.0, 2.82) [0.5, 0.0, 0.5], PeriodicSite: Tl (2.82, 2.82, 2.82) [0.5, 0.5, 0.5], PeriodicSite: C (0.0, 0.0, 0.0) [0.0, 0.0, 0.0]]",179.4531945109089,"[Element Tb, Element Tb, Element Tb, Element Tl, Element C]",False,False,1.6127153258333329,1.9070490167777785,0.0
1440,mp,mp-982040.cif,K1 Bi1 O3,KBiO3,Pm-3m,4.284204,4.284204,4.284204,90.0,90.0,90.0,"(True, True, True)","[PeriodicSite: K (0.0, 0.0, 0.0) [0.0, 0.0, 0.0], PeriodicSite: Bi (2.142, 2.142, 2.142) [0.5, 0.5, 0.5], PeriodicSite: O (2.142, 2.142, 0.0) [0.5, 0.5, 0.0], PeriodicSite: O (2.142, 0.0, 2.142) [0.5, 0.0, 0.5], PeriodicSite: O (0.0, 2.142, 2.142) [0.0, 0.5, 0.5]]",78.63401066432932,"[Element K, Element Bi, Element O, Element O, Element O]",False,False,-1.4945829598499998,0.09286868349999722,0.0
1441,mp,mp-976727.cif,Pr1 Bi1 O3,PrBiO3,Pm-3m,4.448834,4.448834,4.448834,90.0,90.0,90.0,"(True, True, True)","[PeriodicSite: Pr (0.0, 0.0, 0.0) [0.0, 0.0, 0.0], PeriodicSite: Bi (2.224, 2.224, 2.224) [0.5, 0.5, 0.5], PeriodicSite: O (2.224, 2.224, 0.0) [0.5, 0.5, 0.0], PeriodicSite: O (2.224, 0.0, 2.224) [0.5, 0.0, 0.5], PeriodicSite: O (0.0, 2.224, 2.224) [0.0, 0.5, 0.5]]",88.05187400348734,"[Element Pr, Element Bi, Element O, Element O, Element O]",False,False,-1.9335058682500006,0.7655784768749996,0.0
1442,mp,mp-21910.cif,Nd3 Al1 N1,Nd3AlN,Pm-3m,5.540037,5.540037,5.540037,90.0,90.0,90.0,"(True, True, True)","[PeriodicSite: Nd (0.0, 2.77, 2.77) [0.0, 0.5, 0.5], PeriodicSite: Nd (2.77, 0.0, 2.77) [0.5, 0.0, 0.5], PeriodicSite: Nd (2.77, 2.77, 0.0) [0.5, 0.5, 0.0], PeriodicSite: Al (2.77, 2.77, 2.77) [0.5, 0.5, 0.5], PeriodicSite: N (0.0, 0.0, 0.0) [0.0, 0.0, 0.0]]",170.0348707903528,"[Element Nd, Element Nd, Element Nd, Element Al, Element N]",False,False,1.0773521945,1.8483892004999998,0.0
1443,mp,mp-975208.cif,Rb1 Ru1 O3,RbRuO3,Pm-3m,3.978586,3.978586,3.978586,90.0,90.0,90.0,"(True, True, True)","[PeriodicSite: Rb (0.0, 0.0, 0.0) [0.0, 0.0, 0.0], PeriodicSite: Ru (1.989, 1.989, 1.989) [0.5, 0.5, 0.5], PeriodicSite: O (1.989, 1.989, 0.0) [0.5, 0.5, 0.0], PeriodicSite: O (1.989, 0.0, 1.989) [0.5, 0.0, 0.5], PeriodicSite: O (0.0, 1.989, 1.989) [0.0, 0.5, 0.5]]",62.97762089316109,"[Element Rb, Element Ru, Element O, Element O, Element O]",False,False,-1.4391856407500008,0.19918271775000562,0.0