,provider,id,Full_Formula,formula,space_group,a_lattice_param,b_lattice_param,c_lattice_param,aplha_degree,beta_degree,gamma_degree,pbc,sits,volume,species_at_sites,is_stable,is_magnetic,formation_energy,energy_above_hull,band_gap
710,mp,mp-1183393.cif,Ba1 Tl1 O3,BaTlO3,Pm-3m,4.350242,4.350242,4.350242,90.0,90.0,90.0,"(True, True, True)","[PeriodicSite: Ba (0.0, 0.0, 0.0) [0.0, 0.0, 0.0], PeriodicSite: Tl (2.175, 2.175, 2.175) [0.5, 0.5, 0.5], PeriodicSite: O (2.175, 2.175, 0.0) [0.5, 0.5, 0.0], PeriodicSite: O (2.175, 0.0, 2.175) [0.5, 0.0, 0.5], PeriodicSite: O (0.0, 2.175, 2.175) [0.0, 0.5, 0.5]]",82.32661349927436,"[Element Ba, Element Tl, Element O, Element O, Element O]",False,False,-1.7009485339166666,0.11923704625000386,0.0
711,mp,mp-1016840.cif,Hg1 Os1 O3,HgOsO3,Pm-3m,3.954635,3.954635,3.954635,90.0,90.0,90.0,"(True, True, True)","[PeriodicSite: Hg (0.0, 0.0, 0.0) [0.0, 0.0, 0.0], PeriodicSite: Os (1.977, 1.977, 1.977) [0.5, 0.5, 0.5], PeriodicSite: O (1.977, 1.977, 0.0) [0.5, 0.5, 0.0], PeriodicSite: O (1.977, 0.0, 1.977) [0.5, 0.0, 0.5], PeriodicSite: O (0.0, 1.977, 1.977) [0.0, 0.5, 0.5]]",61.847082438291004,"[Element Hg, Element Os, Element O, Element O, Element O]",False,False,-0.8531150302500002,0.3145337030000004,0.0
712,mp,mp-1013561.cif,Sr3 Sb1 As1,Sr3SbAs,Pm-3m,5.848444,5.848444,5.848444,90.0,90.0,90.0,"(True, True, True)","[PeriodicSite: Sr (0.0, 2.924, 2.924) [0.0, 0.5, 0.5], PeriodicSite: Sr (2.924, 0.0, 2.924) [0.5, 0.0, 0.5], PeriodicSite: Sr (2.924, 2.924, 0.0) [0.5, 0.5, 0.0], PeriodicSite: Sb (0.0, 0.0, 0.0) [0.0, 0.0, 0.0], PeriodicSite: As (2.924, 2.924, 2.924) [0.5, 0.5, 0.5]]",200.04191685716947,"[Element Sr, Element Sr, Element Sr, Element Sb, Element As]",False,False,-0.9151710569999999,0.1815341367500003,0.12799999999999967
713,mp,mp-1185414.cif,Li1 Si1 O3,LiSiO3,Pm-3m,3.508652,3.508652,3.508652,90.0,90.0,90.0,"(True, True, True)","[PeriodicSite: Li (0.0, 0.0, 0.0) [0.0, 0.0, 0.0], PeriodicSite: Si (1.754, 1.754, 1.754) [0.5, 0.5, 0.5], PeriodicSite: O (1.754, 1.754, 0.0) [0.5, 0.5, 0.0], PeriodicSite: O (1.754, 0.0, 1.754) [0.5, 0.0, 0.5], PeriodicSite: O (0.0, 1.754, 1.754) [0.0, 0.5, 0.5]]",43.19374764725567,"[Element Li, Element Si, Element O, Element O, Element O]",False,False,-2.395005085916666,0.32106029166666605,0.0
714,mp,mp-1206778.cif,Nd1 Si1 Pt3,NdSiPt3,P4mm,4.09760065,4.09760065,5.45224093,90.0,90.0,90.0,"(True, True, True)","[PeriodicSite: Nd (2.049, 2.049, 3.814) [0.5, 0.5, 0.6995], PeriodicSite: Si (0.0, 0.0, 5.282) [-0.0, -0.0, 0.9687], PeriodicSite: Pt (2.049, 0.0, 1.066) [0.5, 0.0, 0.1955], PeriodicSite: Pt (0.0, 2.049, 1.066) [-0.0, 0.5, 0.1955], PeriodicSite: Pt (0.0, 0.0, 2.993) [-0.0, 0.0, 0.549]]",91.54493038014084,"[Element Nd, Element Si, Element Pt, Element Pt, Element Pt]",True,False,-1.0553892935,0.0,0.0
715,mp,mp-1183540.cif,Ca1 Zn1 O3,CaZnO3,Pm-3m,3.876625,3.876625,3.876625,90.0,90.0,90.0,"(True, True, True)","[PeriodicSite: Ca (0.0, 0.0, 0.0) [0.0, 0.0, 0.0], PeriodicSite: Zn (1.938, 1.938, 1.938) [0.5, 0.5, 0.5], PeriodicSite: O (1.938, 1.938, 0.0) [0.5, 0.5, 0.0], PeriodicSite: O (1.938, 0.0, 1.938) [0.5, 0.0, 0.5], PeriodicSite: O (0.0, 1.938, 1.938) [0.0, 0.5, 0.5]]",58.258778748431645,"[Element Ca, Element Zn, Element O, Element O, Element O]",False,False,-1.8028914552500006,0.2381676579999974,0.0
716,mp,mp-1068786.cif,In1 Co3 N1,InCo3N,Pm-3m,3.82707053,3.82712609,3.82710757,90.0,90.0,90.0,"(True, True, True)","[PeriodicSite: In (0.0, 0.0, 0.0) [0.0, -0.0, 0.0], PeriodicSite: Co (1.914, 1.914, 0.0) [0.5, 0.5, -0.0], PeriodicSite: Co (1.914, 0.0, 1.914) [0.5, 0.0, 0.5], PeriodicSite: Co (0.0, 1.914, 1.914) [0.0, 0.5, 0.5], PeriodicSite: N (1.914, 1.914, 1.914) [0.5, 0.5, 0.5]]",56.0544255431201,"[Element In, Element Co, Element Co, Element Co, Element N]",True,True,-0.11692752199999887,0.0,0.0
717,mp,mp-1185941.cif,Mg1 Re1 O3,MgReO3,Pm-3m,3.922568,3.922568,3.922568,90.0,90.0,90.0,"(True, True, True)","[PeriodicSite: Mg (0.0, 0.0, 0.0) [0.0, 0.0, 0.0], PeriodicSite: Re (1.961, 1.961, 1.961) [0.5, 0.5, 0.5], PeriodicSite: O (1.961, 1.961, 0.0) [0.5, 0.5, 0.0], PeriodicSite: O (1.961, 0.0, 1.961) [0.5, 0.0, 0.5], PeriodicSite: O (0.0, 1.961, 1.961) [0.0, 0.5, 0.5]]",60.35474831531324,"[Element Mg, Element Re, Element O, Element O, Element O]",False,False,-1.7339956402499994,0.6495308069999997,0.0
718,mp,mp-1186787.cif,Pu1 Mg1 O3,PuMgO3,Pm-3m,3.82791,3.82791,3.82791,90.0,90.0,90.0,"(True, True, True)","[PeriodicSite: Pu (0.0, 0.0, 0.0) [0.0, 0.0, 0.0], PeriodicSite: Mg (1.914, 1.914, 1.914) [0.5, 0.5, 0.5], PeriodicSite: O (1.914, 1.914, 0.0) [0.5, 0.5, 0.0], PeriodicSite: O (1.914, 0.0, 1.914) [0.5, 0.0, 0.5], PeriodicSite: O (0.0, 1.914, 1.914) [0.0, 0.5, 0.5]]",56.08996317733968,"[Element Pu, Element Mg, Element O, Element O, Element O]",False,True,-2.79908159525,0.6129025160000019,0.0
719,mp,mp-1187145.cif,Sr1 Dy1 O3,SrDyO3,Pm-3m,4.372935,4.372935,4.372935,90.0,90.0,90.0,"(True, True, True)","[PeriodicSite: Sr (0.0, 0.0, 0.0) [0.0, 0.0, 0.0], PeriodicSite: Dy (2.186, 2.186, 2.186) [0.5, 0.5, 0.5], PeriodicSite: O (2.186, 2.186, 0.0) [0.5, 0.5, 0.0], PeriodicSite: O (2.186, 0.0, 2.186) [0.5, 0.0, 0.5], PeriodicSite: O (0.0, 2.186, 2.186) [0.0, 0.5, 0.5]]",83.6217141622725,"[Element Sr, Element Dy, Element O, Element O, Element O]",False,True,-3.029853726583333,0.2528056500000009,0.0
720,mp,mp-1184471.cif,Gd1 Cd1 O3,GdCdO3,Pm-3m,4.138427,4.138427,4.138427,90.0,90.0,90.0,"(True, True, True)","[PeriodicSite: Gd (0.0, 0.0, 0.0) [0.0, 0.0, 0.0], PeriodicSite: Cd (2.069, 2.069, 2.069) [0.5, 0.5, 0.5], PeriodicSite: O (2.069, 2.069, 0.0) [0.5, 0.5, 0.0], PeriodicSite: O (2.069, 0.0, 2.069) [0.5, 0.0, 0.5], PeriodicSite: O (0.0, 2.069, 2.069) [0.0, 0.5, 0.5]]",70.87709295487406,"[Element Gd, Element Cd, Element O, Element O, Element O]",False,True,-1.8193336332499996,0.6748930346250006,0.0
721,mp,mp-10606.cif,Sm3 Tl1 C1,Sm3TlC,Pm-3m,5.04207852,5.04207852,5.04207852,90.0,90.0,90.0,"(True, True, True)","[PeriodicSite: Sm (2.521, 0.0, 2.521) [0.5, 0.0, 0.5], PeriodicSite: Sm (0.0, 2.521, 2.521) [0.0, 0.5, 0.5], PeriodicSite: Sm (2.521, 2.521, 0.0) [0.5, 0.5, 0.0], PeriodicSite: Tl (0.0, 0.0, 0.0) [-0.0, -0.0, -0.0], PeriodicSite: C (2.521, 2.521, 2.521) [0.5, 0.5, 0.5]]",128.182522531986,"[Element Sm, Element Sm, Element Sm, Element Tl, Element C]",True,False,-0.34036146716666665,0.0,0.0
722,mp,mp-1183154.cif,Al1 Pb1 O3,AlPbO3,Pm-3m,3.83448,3.83448,3.83448,90.0,90.0,90.0,"(True, True, True)","[PeriodicSite: Al (1.917, 1.917, 1.917) [0.5, 0.5, 0.5], PeriodicSite: Pb (0.0, 0.0, 0.0) [0.0, 0.0, 0.0], PeriodicSite: O (1.917, 1.917, 0.0) [0.5, 0.5, 0.0], PeriodicSite: O (1.917, 0.0, 1.917) [0.5, 0.0, 0.5], PeriodicSite: O (0.0, 1.917, 1.917) [0.0, 0.5, 0.5]]",56.3792677148114,"[Element Al, Element Pb, Element O, Element O, Element O]",False,False,-2.1920820792500004,0.2562708705909085,0.0
723,mp,mp-1184348.cif,Eu1 Pb1 O3,EuPbO3,Pm-3m,4.284826,4.284826,4.284826,90.0,90.0,90.0,"(True, True, True)","[PeriodicSite: Eu (0.0, 0.0, 0.0) [0.0, 0.0, 0.0], PeriodicSite: Pb (2.142, 2.142, 2.142) [0.5, 0.5, 0.5], PeriodicSite: O (2.142, 2.142, 0.0) [0.5, 0.5, 0.0], PeriodicSite: O (2.142, 0.0, 2.142) [0.5, 0.0, 0.5], PeriodicSite: O (0.0, 2.142, 2.142) [0.0, 0.5, 0.5]]",78.6682649547427,"[Element Eu, Element Pb, Element O, Element O, Element O]",False,True,-2.0061519932500005,0.2905771320312507,0.0
724,mp,mp-1216814.cif,U1 O1 F3,UOF3,P3m1,3.8119759527006463,3.8119759527006463,5.113238,90.0,90.0,119.99999917908715,"(True, True, True)","[PeriodicSite: U (0.0, 0.0, 5.014) [0.0, 0.0, 0.9806], PeriodicSite: O (1.906, -1.1, 0.5828) [0.6667, 0.3333, 0.114], PeriodicSite: F (1.906, -1.1, 3.388) [0.6667, 0.3333, 0.6626], PeriodicSite: F (1.906, 1.1, 4.417) [0.3333, 0.6667, 0.8639], PeriodicSite: F (0.0, 0.0, 1.937) [0.0, 0.0, 0.3789]]",64.34679904975295,"[Element U, Element O, Element F, Element F, Element F]",False,True,-3.33794122525,0.5052047856666793,0.0
725,mp,mp-1206121.cif,Dy1 Ru3 C1,DyRu3C,Pm-3m,4.13466309,4.13466309,4.13466309,90.0,90.0,90.0,"(True, True, True)","[PeriodicSite: Dy (2.067, 2.067, 2.067) [0.5, 0.5, 0.5], PeriodicSite: Ru (2.067, 0.0, 0.0) [0.5, -0.0, -0.0], PeriodicSite: Ru (0.0, 2.067, 0.0) [-0.0, 0.5, -0.0], PeriodicSite: Ru (0.0, 0.0, 2.067) [0.0, -0.0, 0.5], PeriodicSite: C (0.0, 0.0, 0.0) [0.0, 0.0, 0.0]]",70.68388009407856,"[Element Dy, Element Ru, Element Ru, Element Ru, Element C]",True,False,-0.21505341949999918,0.0,0.0
726,mp,mp-1016823.cif,Ba1 Ge1 O3,BaGeO3,Pm-3m,3.980389,3.980389,3.980389,90.0,90.0,90.0,"(True, True, True)","[PeriodicSite: Ba (0.0, 0.0, 0.0) [0.0, 0.0, 0.0], PeriodicSite: Ge (1.99, 1.99, 1.99) [0.5, 0.5, 0.5], PeriodicSite: O (1.99, 1.99, 0.0) [0.5, 0.5, 0.0], PeriodicSite: O (1.99, 0.0, 1.99) [0.5, 0.0, 0.5], PeriodicSite: O (0.0, 1.99, 1.99) [0.0, 0.5, 0.5]]",63.06327955363161,"[Element Ba, Element Ge, Element O, Element O, Element O]",False,False,-2.46440117825,0.23236340949999956,0.0
727,mp,mp-1068340.cif,Cs1 Ge1 Br3,CsGeBr3,R3m,5.668240863754826,5.668240863754826,5.668241398299477,88.89687629368005,88.89687629368005,88.89686455714903,"(True, True, True)","[PeriodicSite: Cs (0.01074, 0.0, 0.007412) [0.001304, 0.001304, 0.001304], PeriodicSite: Ge (3.928, 0.0, 2.712) [0.4771, 0.4771, 0.4771], PeriodicSite: Br (2.233, -1.893, 2.869) [0.5055, 0.02867, 0.5055], PeriodicSite: Br (2.233, 1.893, 2.869) [0.02867, 0.5055, 0.5055], PeriodicSite: Br (4.095, 0.0, 0.1712) [0.5055, 0.5055, 0.02867]]",182.0146934299267,"[Element Cs, Element Ge, Element Br, Element Br, Element Br]",True,False,-1.4995879365862073,0.0,0.7856000000000001
728,mp,mp-1187518.cif,Yb1 Tc1 O3,YbTcO3,Pm-3m,3.903073,3.903073,3.903073,90.0,90.0,90.0,"(True, True, True)","[PeriodicSite: Yb (0.0, 0.0, 0.0) [0.0, 0.0, 0.0], PeriodicSite: Tc (1.952, 1.952, 1.952) [0.5, 0.5, 0.5], PeriodicSite: O (1.952, 1.952, 0.0) [0.5, 0.5, 0.0], PeriodicSite: O (1.952, 0.0, 1.952) [0.5, 0.0, 0.5], PeriodicSite: O (0.0, 1.952, 1.952) [0.0, 0.5, 0.5]]",59.45933150596865,"[Element Yb, Element Tc, Element O, Element O, Element O]",False,False,-2.50864006825,0.0740273264999951,0.0
729,mp,mp-1017467.cif,Ca1 Mn1 O3,CaMnO3,Pm-3m,3.801716,3.801716,3.801716,90.0,90.0,90.0,"(True, True, True)","[PeriodicSite: Ca (1.901, 1.901, 1.901) [0.5, 0.5, 0.5], PeriodicSite: Mn (0.0, 0.0, 0.0) [0.0, 0.0, 0.0], PeriodicSite: O (1.901, 0.0, 0.0) [0.5, 0.0, 0.0], PeriodicSite: O (0.0, 1.901, 0.0) [0.0, 0.5, 0.0], PeriodicSite: O (0.0, 0.0, 1.901) [0.0, 0.0, 0.5]]",54.946370694131424,"[Element Ca, Element Mn, Element O, Element O, Element O]",False,True,-2.4197267568362077,0.1165496273333364,0.0
730,mp,mp-1183878.cif,Eu1 Cd1 O3,EuCdO3,Pm-3m,4.163324,4.163324,4.163324,90.0,90.0,90.0,"(True, True, True)","[PeriodicSite: Eu (0.0, 0.0, 0.0) [0.0, 0.0, 0.0], PeriodicSite: Cd (2.082, 2.082, 2.082) [0.5, 0.5, 0.5], PeriodicSite: O (2.082, 2.082, 0.0) [0.5, 0.5, 0.0], PeriodicSite: O (2.082, 0.0, 2.082) [0.5, 0.0, 0.5], PeriodicSite: O (0.0, 2.082, 2.082) [0.0, 0.5, 0.5]]",72.1640053711473,"[Element Eu, Element Cd, Element O, Element O, Element O]",False,True,-1.690104499249999,0.4486198210000003,0.0
731,mp,mp-1184669.cif,Hf1 Np1 O3,HfNpO3,Pm-3m,4.121025,4.121025,4.121025,90.0,90.0,90.0,"(True, True, True)","[PeriodicSite: Hf (2.061, 2.061, 2.061) [0.5, 0.5, 0.5], PeriodicSite: Np (0.0, 0.0, 0.0) [0.0, 0.0, 0.0], PeriodicSite: O (2.061, 2.061, 0.0) [0.5, 0.5, 0.0], PeriodicSite: O (2.061, 0.0, 2.061) [0.5, 0.0, 0.5], PeriodicSite: O (0.0, 2.061, 2.061) [0.0, 0.5, 0.5]]",69.98673726680191,"[Element Hf, Element Np, Element O, Element O, Element O]",False,True,-3.133317581,0.35969367362500293,0.0
732,mp,mp-1013642.cif,Ca3 As1 P1,Ca3AsP,Pm-3m,5.333899,5.333899,5.333899,90.0,90.0,90.0,"(True, True, True)","[PeriodicSite: Ca (0.0, 2.667, 2.667) [0.0, 0.5, 0.5], PeriodicSite: Ca (2.667, 0.0, 2.667) [0.5, 0.0, 0.5], PeriodicSite: Ca (2.667, 2.667, 0.0) [0.5, 0.5, 0.0], PeriodicSite: As (0.0, 0.0, 0.0) [0.0, 0.0, 0.0], PeriodicSite: P (2.667, 2.667, 2.667) [0.5, 0.5, 0.5]]",151.75197904576734,"[Element Ca, Element Ca, Element Ca, Element As, Element P]",False,False,-0.8560920436666664,0.1712062826666667,0.19269999999999987
733,mp,mp-1187746.cif,V1 Co1 O3,VCoO3,Pm-3m,3.776133,3.776133,3.776133,90.0,90.0,90.0,"(True, True, True)","[PeriodicSite: V (1.888, 1.888, 1.888) [0.5, 0.5, 0.5], PeriodicSite: Co (0.0, 0.0, 0.0) [0.0, 0.0, 0.0], PeriodicSite: O (1.888, 1.888, 0.0) [0.5, 0.5, 0.0], PeriodicSite: O (1.888, 0.0, 1.888) [0.5, 0.0, 0.5], PeriodicSite: O (0.0, 1.888, 1.888) [0.0, 0.5, 0.5]]",53.84456178860735,"[Element V, Element Co, Element O, Element O, Element O]",False,True,-1.4869293342500007,0.5202194087499858,0.0
734,mp,mp-1184468.cif,Gd1 Be1 O3,GdBeO3,Pm-3m,3.599403,3.599403,3.599403,90.0,90.0,90.0,"(True, True, True)","[PeriodicSite: Gd (0.0, 0.0, 0.0) [0.0, 0.0, 0.0], PeriodicSite: Be (1.8, 1.8, 1.8) [0.5, 0.5, 0.5], PeriodicSite: O (1.8, 1.8, 0.0) [0.5, 0.5, 0.0], PeriodicSite: O (1.8, 0.0, 1.8) [0.5, 0.0, 0.5], PeriodicSite: O (0.0, 1.8, 1.8) [0.0, 0.5, 0.5]]",46.63279248900443,"[Element Gd, Element Be, Element O, Element O, Element O]",False,True,-2.8741741442500013,0.3153102196249993,0.0
735,mp,mp-1186764.cif,Sr1 W1 O3,SrWO3,Pm-3m,4.101269,4.101269,4.101269,90.0,90.0,90.0,"(True, True, True)","[PeriodicSite: Sr (0.0, 0.0, 0.0) [0.0, 0.0, 0.0], PeriodicSite: W (2.051, 2.051, 2.051) [0.5, 0.5, 0.5], PeriodicSite: O (2.051, 2.051, 0.0) [0.5, 0.5, 0.0], PeriodicSite: O (2.051, 0.0, 2.051) [0.5, 0.0, 0.5], PeriodicSite: O (0.0, 2.051, 2.051) [0.0, 0.5, 0.5]]",68.98501547948386,"[Element Sr, Element W, Element O, Element O, Element O]",False,True,-2.4570497425833344,0.1936437926666823,0.0
736,mp,mp-1214407.cif,Ba1 B1 O3,BaBO3,Pm-3m,3.773902,3.773902,3.773902,90.0,90.0,90.0,"(True, True, True)","[PeriodicSite: Ba (1.887, 1.887, 1.887) [0.5, 0.5, 0.5], PeriodicSite: B (0.0, 0.0, 0.0) [0.0, 0.0, 0.0], PeriodicSite: O (1.887, 0.0, 0.0) [0.5, 0.0, 0.0], PeriodicSite: O (0.0, 1.887, 0.0) [0.0, 0.5, 0.0], PeriodicSite: O (0.0, 0.0, 1.887) [0.0, 0.0, 0.5]]",53.74918146839155,"[Element Ba, Element B, Element O, Element O, Element O]",False,True,-1.574706519083334,1.253707967666669,0.0
737,mp,mp-10036.cif,Ce3 Al1 C1,Ce3AlC,Pm-3m,4.98731642,4.98731967,4.98728285,90.0,90.0,90.0,"(True, True, True)","[PeriodicSite: Ce (0.0, 2.494, 2.494) [0.0, 0.5, 0.5], PeriodicSite: Ce (2.494, 0.0, 2.494) [0.5, -0.0, 0.5], PeriodicSite: Ce (2.494, 2.494, 0.0) [0.5, 0.5, 0.0], PeriodicSite: Al (0.0, 0.0, 0.0) [-0.0, 0.0, 0.0], PeriodicSite: C (2.494, 2.494, 2.494) [0.5, 0.5, 0.5]]",124.05038839781575,"[Element Ce, Element Ce, Element Ce, Element Al, Element C]",True,True,-0.22980587250000042,0.0,0.0
738,mp,mp-1207084.cif,Al1 Ni3 C1,AlNi3C,Pm-3m,3.76114,3.76114,3.76114,90.0,90.0,90.0,"(True, True, True)","[PeriodicSite: Al (1.881, 1.881, 1.881) [0.5, 0.5, 0.5], PeriodicSite: Ni (1.881, 0.0, 0.0) [0.5, 0.0, 0.0], PeriodicSite: Ni (0.0, 1.881, 0.0) [0.0, 0.5, 0.0], PeriodicSite: Ni (0.0, 0.0, 1.881) [0.0, 0.0, 0.5], PeriodicSite: C (0.0, 0.0, 0.0) [0.0, 0.0, 0.0]]",53.20574125296955,"[Element Al, Element Ni, Element Ni, Element Ni, Element C]",False,False,-0.18136898149999964,0.16590739050000103,0.0
739,mp,mp-1184400.cif,Eu1 W1 O3,EuWO3,Pm-3m,4.10016,4.10016,4.10016,90.0,90.0,90.0,"(True, True, True)","[PeriodicSite: Eu (0.0, 0.0, 0.0) [0.0, 0.0, 0.0], PeriodicSite: W (2.05, 2.05, 2.05) [0.5, 0.5, 0.5], PeriodicSite: O (2.05, 2.05, 0.0) [0.5, 0.5, 0.0], PeriodicSite: O (2.05, 0.0, 2.05) [0.5, 0.0, 0.5], PeriodicSite: O (0.0, 2.05, 2.05) [0.0, 0.5, 0.5]]",68.92906911488409,"[Element Eu, Element W, Element O, Element O, Element O]",False,True,-2.410123757250001,0.1474619762500069,0.0
740,mp,mp-1080799.cif,Cu1 N1 F3,CuNF3,Pm-3m,3.887755,3.887755,3.887755,90.0,90.0,90.0,"(True, True, True)","[PeriodicSite: Cu (0.0, 0.0, 0.0) [0.0, 0.0, 0.0], PeriodicSite: N (1.944, 1.944, 1.944) [0.5, 0.5, 0.5], PeriodicSite: F (0.0, 0.0, 1.944) [0.0, 0.0, 0.5], PeriodicSite: F (1.944, 0.0, 0.0) [0.5, 0.0, 0.0], PeriodicSite: F (0.0, 1.944, 0.0) [0.0, 0.5, 0.0]]",58.76201311227689,"[Element Cu, Element N, Element F, Element F, Element F]",False,True,-0.24806132249999918,0.8397025345000015,0.0
741,mp,mp-1017465.cif,Ba1 V1 O3,BaVO3,Pm-3m,3.982485,3.982485,3.982485,90.0,90.0,90.0,"(True, True, True)","[PeriodicSite: Ba (0.0, 0.0, 0.0) [0.0, 0.0, 0.0], PeriodicSite: V (1.991, 1.991, 1.991) [0.5, 0.5, 0.5], PeriodicSite: O (1.991, 0.0, 1.991) [0.5, 0.0, 0.5], PeriodicSite: O (0.0, 1.991, 1.991) [0.0, 0.5, 0.5], PeriodicSite: O (1.991, 1.991, 0.0) [0.5, 0.5, 0.0]]",63.16295592953194,"[Element Ba, Element V, Element O, Element O, Element O]",False,True,-2.7912361192500006,0.11491591899998443,0.0
742,mp,mp-1183905.cif,Eu1 Er1 O3,EuErO3,Pm-3m,4.303652,4.303652,4.303652,90.0,90.0,90.0,"(True, True, True)","[PeriodicSite: Eu (0.0, 0.0, 0.0) [0.0, 0.0, 0.0], PeriodicSite: Er (2.152, 2.152, 2.152) [0.5, 0.5, 0.5], PeriodicSite: O (2.152, 2.152, 0.0) [0.5, 0.5, 0.0], PeriodicSite: O (2.152, 0.0, 2.152) [0.5, 0.0, 0.5], PeriodicSite: O (0.0, 2.152, 2.152) [0.0, 0.5, 0.5]]",79.70974853734867,"[Element Eu, Element Er, Element O, Element O, Element O]",False,True,-3.1473501632500005,0.47416380987499807,0.0
743,mp,mp-1217183.cif,Ti3 Cu1 Sn1,Ti3CuSn,P-6m2,4.703768108676808,4.704005,5.076873,90.0,90.0,59.99832699066387,"(True, True, True)","[PeriodicSite: Ti (-4.704, -0.0001955, -2.452) [4.8e-05, 1.0, 0.483], PeriodicSite: Ti (-4.704, -0.0001955, -0.08612) [4.8e-05, 1.0, 0.01696], PeriodicSite: Ti (-2.352, -1.358, -1.269) [0.3333, 0.3334, 0.25], PeriodicSite: Cu (-2.352, -1.358, -3.808) [0.3334, 0.3333, 0.75], PeriodicSite: Sn (-4.704, -2.715, -1.269) [0.6666, 0.6667, 0.25]]",97.28217849262651,"[Element Ti, Element Ti, Element Ti, Element Cu, Element Sn]",False,False,0.18731645300000038,0.45190449780000286,0.0
744,mp,mp-1187483.cif,Tl1 Cu1 O3,TlCuO3,Pm-3m,3.842897,3.842897,3.842897,90.0,90.0,90.0,"(True, True, True)","[PeriodicSite: Tl (0.0, 0.0, 0.0) [0.0, 0.0, 0.0], PeriodicSite: Cu (1.921, 1.921, 1.921) [0.5, 0.5, 0.5], PeriodicSite: O (1.921, 1.921, 0.0) [0.5, 0.5, 0.0], PeriodicSite: O (1.921, 0.0, 1.921) [0.5, 0.0, 0.5], PeriodicSite: O (0.0, 1.921, 1.921) [0.0, 0.5, 0.5]]",56.751354716769065,"[Element Tl, Element Cu, Element O, Element O, Element O]",False,False,-0.6591835159166664,0.31012881212500076,0.0
745,mp,mp-1069882.cif,La1 Si3 Os1,LaSi3Os,I4mm,5.838141198102135,5.838141198102135,5.838141198102135,136.9314778302925,136.9314778302925,62.54349629527788,"(True, True, True)","[PeriodicSite: La (0.0, 0.0, 9.966) [0.9986, 0.9986, 0.0], PeriodicSite: Si (0.0, 0.0, 4.184) [0.4193, 0.4193, -0.0], PeriodicSite: Si (2.143, 0.0, 2.599) [0.2604, 0.7604, 0.5], PeriodicSite: Si (0.0, 2.143, 2.599) [0.7604, 0.2604, 0.5], PeriodicSite: Os (0.0, 0.0, 6.54) [0.6554, 0.6554, -0.0]]",91.65861762638278,"[Element La, Element Si, Element Si, Element Si, Element Os]",True,False,-0.611120287,0.0,0.0
746,mp,mp-1040471.cif,Na1 Mo1 O3,NaMoO3,Pm-3m,3.948882,3.948882,3.948882,90.0,90.0,90.0,"(True, True, True)","[PeriodicSite: Na (1.974, 1.974, 1.974) [0.5, 0.5, 0.5], PeriodicSite: Mo (0.0, 0.0, 0.0) [0.0, 0.0, 0.0], PeriodicSite: O (1.974, 0.0, 0.0) [0.5, 0.0, 0.0], PeriodicSite: O (0.0, 1.974, 0.0) [0.0, 0.5, 0.0], PeriodicSite: O (0.0, 0.0, 1.974) [0.0, 0.0, 0.5]]",61.57755902520197,"[Element Na, Element Mo, Element O, Element O, Element O]",False,True,-2.019523498560345,0.09633984900000048,0.0
747,mp,mp-1211589.cif,K1 Ca1 Cl3,KCaCl3,Pm-3m,5.393523,5.393523,5.393523,90.0,90.0,90.0,"(True, True, True)","[PeriodicSite: K (0.0, 0.0, 0.0) [0.0, 0.0, 0.0], PeriodicSite: Ca (2.697, 2.697, 2.697) [0.5, 0.5, 0.5], PeriodicSite: Cl (0.0, 2.697, 2.697) [0.0, 0.5, 0.5], PeriodicSite: Cl (2.697, 0.0, 2.697) [0.5, 0.0, 0.5], PeriodicSite: Cl (2.697, 2.697, 0.0) [0.5, 0.5, 0.0]]",156.89807138304974,"[Element K, Element Ca, Element Cl, Element Cl, Element Cl]",False,False,-2.5652433925999993,0.045733154500000595,4.7635