,provider,id,Full_Formula,formula,space_group,a_lattice_param,b_lattice_param,c_lattice_param,aplha_degree,beta_degree,gamma_degree,pbc,sits,volume,species_at_sites,is_stable,is_magnetic,formation_energy,energy_above_hull,band_gap
1007,mp,mp-866917.cif,Ca1 Sn1 S3,CaSnS3,Amm2,4.952503977083512,4.952503977083512,5.398577,90.0,90.0,109.828103183999,"(True, True, True)","[PeriodicSite: Ca (1.101, 0.0, 0.0) [0.1933, 0.1933, 0.0], PeriodicSite: Sn (3.792, 0.0, 2.699) [0.666, 0.666, 0.5], PeriodicSite: S (3.958, 0.0, 0.0) [0.6952, 0.6952, 0.0], PeriodicSite: S (1.327, -1.145, 2.699) [0.3744, 0.09184, 0.5], PeriodicSite: S (1.327, 1.145, 2.699) [0.09184, 0.3744, 0.5]]",124.56235415941737,"[Element Ca, Element Sn, Element S, Element S, Element S]",False,False,-1.0931493168750002,0.2950761572499978,0.0
1008,mp,mp-7961.cif,Sr3 Sn1 O1,Sr3SnO,Pm-3m,5.1518472,5.1518472,5.1518472,90.0,90.0,90.0,"(True, True, True)","[PeriodicSite: Sr (2.576, 0.0, 2.576) [0.5, 0.0, 0.5], PeriodicSite: Sr (0.0, 2.576, 2.576) [0.0, 0.5, 0.5], PeriodicSite: Sr (2.576, 2.576, 0.0) [0.5, 0.5, 0.0], PeriodicSite: Sn (0.0, 0.0, 0.0) [-0.0, -0.0, -0.0], PeriodicSite: O (2.576, 2.576, 2.576) [0.5, 0.5, 0.5]]",136.73790480998701,"[Element Sr, Element Sr, Element Sr, Element Sn, Element O]",True,False,-1.6445503027500004,0.0,0.0
1009,mp,mp-985585.cif,Li3 Cl1 O1,Li3ClO,Pm-3m,3.908337,3.908337,3.908337,90.0,90.0,90.0,"(True, True, True)","[PeriodicSite: Li (0.0, 1.954, 1.954) [0.0, 0.5, 0.5], PeriodicSite: Li (1.954, 0.0, 1.954) [0.5, 0.0, 0.5], PeriodicSite: Li (1.954, 1.954, 0.0) [0.5, 0.5, 0.0], PeriodicSite: Cl (0.0, 0.0, 0.0) [0.0, 0.0, 0.0], PeriodicSite: O (1.954, 1.954, 1.954) [0.5, 0.5, 0.5]]",59.70023110462523,"[Element Li, Element Li, Element Li, Element Cl, Element O]",False,False,-2.06441508375,0.02756783699999943,4.6766000000000005
1010,mp,mp-644483.cif,Ti3 Sn1 H1,Ti3SnH,Pm-3m,4.16614803,4.16665784,4.16499926,90.0,90.0,90.0,"(True, True, True)","[PeriodicSite: Ti (2.083, 0.0, 2.082) [0.5, 0.0, 0.5], PeriodicSite: Ti (0.0, 2.083, 2.082) [-0.0, 0.5, 0.5], PeriodicSite: Ti (2.083, 2.083, 0.0) [0.5, 0.5, -0.0], PeriodicSite: Sn (0.0, 0.0, 0.0) [-0.0, 0.0, 0.0], PeriodicSite: H (2.083, 2.083, 2.082) [0.5, 0.5, 0.5]]",72.29986126465135,"[Element Ti, Element Ti, Element Ti, Element Sn, Element H]",True,True,-0.43105062200000005,0.0,0.0
1011,mp,mp-984628.cif,Ca1 B1 O3,CaBO3,Pm-3m,3.47968,3.47968,3.47968,90.0,90.0,90.0,"(True, True, True)","[PeriodicSite: Ca (0.0, 0.0, 0.0) [0.0, 0.0, 0.0], PeriodicSite: B (1.74, 1.74, 1.74) [0.5, 0.5, 0.5], PeriodicSite: O (1.74, 1.74, 0.0) [0.5, 0.5, 0.0], PeriodicSite: O (1.74, 0.0, 1.74) [0.5, 0.0, 0.5], PeriodicSite: O (0.0, 1.74, 1.74) [0.0, 0.5, 0.5]]",42.13256708502324,"[Element Ca, Element B, Element O, Element O, Element O]",False,False,-2.0217037830833333,0.8974337456250012,0.0
1012,mp,mp-984632.cif,Ca1 Be1 O3,CaBeO3,Pm-3m,3.614908,3.614908,3.614908,90.0,90.0,90.0,"(True, True, True)","[PeriodicSite: Ca (0.0, 0.0, 0.0) [0.0, 0.0, 0.0], PeriodicSite: Be (1.807, 1.807, 1.807) [0.5, 0.5, 0.5], PeriodicSite: O (1.807, 1.807, 0.0) [0.5, 0.5, 0.0], PeriodicSite: O (1.807, 0.0, 1.807) [0.5, 0.0, 0.5], PeriodicSite: O (0.0, 1.807, 1.807) [0.0, 0.5, 0.5]]",47.238026636691295,"[Element Ca, Element Be, Element O, Element O, Element O]",False,True,-2.23223034625,0.3336114429999988,0.0
1013,mp,mp-975380.cif,Rb1 Cd1 O3,RbCdO3,Pm-3m,4.465707,4.465707,4.465707,90.0,90.0,90.0,"(True, True, True)","[PeriodicSite: Rb (0.0, 0.0, 0.0) [0.0, 0.0, 0.0], PeriodicSite: Cd (2.233, 2.233, 2.233) [0.5, 0.5, 0.5], PeriodicSite: O (2.233, 2.233, 0.0) [0.5, 0.5, 0.0], PeriodicSite: O (2.233, 0.0, 2.233) [0.5, 0.0, 0.5], PeriodicSite: O (0.0, 2.233, 2.233) [0.0, 0.5, 0.5]]",89.05753605405575,"[Element Rb, Element Cd, Element O, Element O, Element O]",False,True,-0.72700060875,0.4030035699999983,0.0
1014,mp,mp-976848.cif,Ni1 Ru1 O3,NiRuO3,Pm-3m,3.717644,3.717644,3.717644,90.0,90.0,90.0,"(True, True, True)","[PeriodicSite: Ni (0.0, 0.0, 0.0) [0.0, 0.0, 0.0], PeriodicSite: Ru (1.859, 1.859, 1.859) [0.5, 0.5, 0.5], PeriodicSite: O (0.0, 0.0, 1.859) [0.0, 0.0, 0.5], PeriodicSite: O (0.0, 1.859, 0.0) [0.0, 0.5, 0.0], PeriodicSite: O (1.859, 0.0, 0.0) [0.5, 0.0, 0.0]]",51.38110012193622,"[Element Ni, Element Ru, Element O, Element O, Element O]",False,True,-0.16184530324999996,1.2007493319999982,0.0
1015,mp,mp-644497.cif,Ba1 Ti1 O3,BaTiO3,Amm2,5.555776618099939,5.555776618099939,3.78421,90.0,90.0,107.26414679637463,"(True, True, True)","[PeriodicSite: Ba (4.244, 0.0, 0.0) [0.6441, 0.6441, 0.0], PeriodicSite: Ti (0.6971, 0.0, 1.892) [0.1058, 0.1058, 0.5], PeriodicSite: O (2.517, 0.0, 1.892) [0.3821, 0.3821, 0.5], PeriodicSite: O (2.925, -3.087, 1.892) [0.789, 0.09902, 0.5], PeriodicSite: O (2.925, 3.087, 1.892) [0.09902, 0.789, 0.5]]",111.54340845946945,"[Element Ba, Element Ti, Element O, Element O, Element O]",False,False,-2.7787687559166665,0.7142316080000004,0.31570000000000004
1016,mp,mp-627439.cif,Mn3 Ga1 N1,Mn3GaN,Pm-3m,3.9957991001499753,3.993988760082447,3.9958990513460266,90.0001434241255,89.99833656859761,90.00082652161764,"(True, True, True)","[PeriodicSite: Mn (1.998, 1.997, 5.009e-06) [0.5, 0.5, 2.1e-07], PeriodicSite: Mn (1.998, 3.994, 1.998) [0.5, 1.0, 0.5], PeriodicSite: Mn (3.996, 1.997, 1.998) [1.0, 0.5, 0.5], PeriodicSite: Ga (3.996, 3.994, 3.996) [1.0, 1.0, 1.0], PeriodicSite: N (1.998, 1.997, 1.998) [0.5, 0.5, 0.5]]",63.77125897629563,"[Element Mn, Element Mn, Element Mn, Element Ga, Element N]",True,True,-0.3689891012586216,0.0,0.0
1017,mp,mp-7143.cif,Ba1 Pu1 O3,BaPuO3,Pm-3m,4.38110308,4.3811021,4.38110112,90.0,90.0,90.0,"(True, True, True)","[PeriodicSite: Ba (0.0, 0.0, 0.0) [0.0, -0.0, 0.0], PeriodicSite: Pu (2.191, 2.191, 2.191) [0.5, 0.5, 0.5], PeriodicSite: O (0.0, 2.191, 2.191) [0.0, 0.5, 0.5], PeriodicSite: O (2.191, 0.0, 2.191) [0.5, -0.0, 0.5], PeriodicSite: O (2.191, 2.191, 0.0) [0.5, 0.5, -0.0]]",84.09111734321918,"[Element Ba, Element Pu, Element O, Element O, Element O]",False,True,-3.4145038172499995,0.0243402839999991,0.0
1018,mp,mp-755572.cif,Eu1 Nb1 O3,EuNbO3,Pm-3m,4.063504103259971,4.063226622603008,4.0628447253587385,90.01351306596186,90.03716071635594,90.05954233615252,"(True, True, True)","[PeriodicSite: Eu (4.06, 4.061, 4.061) [1.0, 1.0, 1.0], PeriodicSite: Nb (2.03, 2.03, 2.031) [0.5, 0.5, 0.5], PeriodicSite: O (-0.001698, 2.031, 2.031) [7.5e-07, 0.5, 0.5], PeriodicSite: O (2.031, -0.00129, 2.031) [0.5, 1.5e-06, 0.5], PeriodicSite: O (2.031, 2.031, -0.0009109) [0.5, 0.5, 1.5e-07]]",67.08132537327681,"[Element Eu, Element Nb, Element O, Element O, Element O]",False,True,-3.1316985792500005,0.018850276000001998,0.0
1019,mp,mp-984756.cif,Cs1 Mg1 O3,CsMgO3,Pm-3m,4.292401,4.292401,4.292401,90.0,90.0,90.0,"(True, True, True)","[PeriodicSite: Cs (2.146, 2.146, 2.146) [0.5, 0.5, 0.5], PeriodicSite: Mg (0.0, 0.0, 0.0) [0.0, 0.0, 0.0], PeriodicSite: O (0.0, 0.0, 2.146) [0.0, 0.0, 0.5], PeriodicSite: O (0.0, 2.146, 0.0) [0.0, 0.5, 0.0], PeriodicSite: O (2.146, 0.0, 0.0) [0.5, 0.0, 0.0]]",79.08622793913015,"[Element Cs, Element Mg, Element O, Element O, Element O]",False,True,-1.329700592836207,0.4803328999999996,0.0
1020,mp,mp-976229.cif,K1 Ag1 O3,KAgO3,Pm-3m,4.192631,4.192631,4.192631,90.0,90.0,90.0,"(True, True, True)","[PeriodicSite: K (0.0, 0.0, 0.0) [0.0, 0.0, 0.0], PeriodicSite: Ag (2.096, 2.096, 2.096) [0.5, 0.5, 0.5], PeriodicSite: O (2.096, 2.096, 0.0) [0.5, 0.5, 0.0], PeriodicSite: O (2.096, 0.0, 2.096) [0.5, 0.0, 0.5], PeriodicSite: O (0.0, 2.096, 2.096) [0.0, 0.5, 0.5]]",73.698716327076,"[Element K, Element Ag, Element O, Element O, Element O]",False,True,-0.4977881291833334,0.32580612624999983,0.0
1021,mp,mp-672229.cif,Mn3 Zn1 C1,Mn3ZnC,Pm-3m,4.592715,4.592715,4.592715,90.0,90.0,90.0,"(True, True, True)","[PeriodicSite: Mn (0.0, 0.0, 2.296) [0.0, 0.0, 0.5], PeriodicSite: Mn (0.0, 2.296, 0.0) [0.0, 0.5, 0.0], PeriodicSite: Mn (2.296, 0.0, 0.0) [0.5, 0.0, 0.0], PeriodicSite: Zn (0.0, 0.0, 0.0) [0.0, 0.0, 0.0], PeriodicSite: C (2.296, 2.296, 2.296) [0.5, 0.5, 0.5]]",96.87428019628113,"[Element Mn, Element Mn, Element Mn, Element Zn, Element C]",False,True,1.998442679741379,2.0724266140183945,0.0
1022,mp,mp-865322.cif,U1 Tl1 O3,UTlO3,Pm-3m,4.32518333,4.32517519,4.32544057,90.0,90.0,90.0,"(True, True, True)","[PeriodicSite: U (2.163, 2.163, 2.163) [0.5, 0.5, 0.5], PeriodicSite: Tl (0.0, 0.0, 0.0) [0.0, 0.0, 0.0], PeriodicSite: O (2.163, 2.163, 0.0) [0.5, 0.5, -0.0], PeriodicSite: O (2.163, 0.0, 2.163) [0.5, 0.0, 0.5], PeriodicSite: O (0.0, 2.163, 2.163) [-0.0, 0.5, 0.5]]",80.91677642495134,"[Element U, Element Tl, Element O, Element O, Element O]",True,True,-2.9413062679166666,0.0,0.27360000000000007
1023,mp,mp-977152.cif,Np1 Ti1 O3,NpTiO3,Pm-3m,3.918337,3.918337,3.918337,90.0,90.0,90.0,"(True, True, True)","[PeriodicSite: Np (0.0, 0.0, 0.0) [0.0, 0.0, 0.0], PeriodicSite: Ti (1.959, 1.959, 1.959) [0.5, 0.5, 0.5], PeriodicSite: O (1.959, 1.959, 0.0) [0.5, 0.5, 0.0], PeriodicSite: O (1.959, 0.0, 1.959) [0.5, 0.0, 0.5], PeriodicSite: O (0.0, 1.959, 1.959) [0.0, 0.5, 0.5]]",60.159657548892305,"[Element Np, Element Ti, Element O, Element O, Element O]",False,True,-3.145168835666668,0.17949956,0.0
1024,mp,mp-972395.cif,Tm1 Be1 O3,TmBeO3,Pm-3m,3.536677,3.536677,3.536677,90.0,90.0,90.0,"(True, True, True)","[PeriodicSite: Tm (0.0, 0.0, 0.0) [0.0, 0.0, 0.0], PeriodicSite: Be (1.768, 1.768, 1.768) [0.5, 0.5, 0.5], PeriodicSite: O (1.768, 1.768, 0.0) [0.5, 0.5, 0.0], PeriodicSite: O (1.768, 0.0, 1.768) [0.5, 0.0, 0.5], PeriodicSite: O (0.0, 1.768, 1.768) [0.0, 0.5, 0.5]]",44.23705371244032,"[Element Tm, Element Be, Element O, Element O, Element O]",False,True,-2.886857311583333,0.40129081937499933,0.0
1025,mp,mp-975296.cif,Rb1 Ho1 O3,RbHoO3,Pm-3m,4.497734,4.497734,4.497734,90.0,90.0,90.0,"(True, True, True)","[PeriodicSite: Rb (0.0, 0.0, 0.0) [0.0, 0.0, 0.0], PeriodicSite: Ho (2.249, 2.249, 2.249) [0.5, 0.5, 0.5], PeriodicSite: O (2.249, 2.249, 0.0) [0.5, 0.5, 0.0], PeriodicSite: O (2.249, 0.0, 2.249) [0.5, 0.0, 0.5], PeriodicSite: O (0.0, 2.249, 2.249) [0.0, 0.5, 0.5]]",90.98740980757066,"[Element Rb, Element Ho, Element O, Element O, Element O]",False,True,-2.30439408075,0.25147993787499967,0.0
1026,mp,mp-865181.cif,Eu1 Ge1 O3,EuGeO3,Pm-3m,3.8399125799990594,3.8367879615043217,3.841179292722228,90.00353638718138,90.00233110516844,90.01420425504352,"(True, True, True)","[PeriodicSite: Eu (3.84, -0.0004742, -7.601e-05) [1.0, -7e-08, -8e-08], PeriodicSite: Ge (1.92, 1.918, 1.92) [0.5, 0.5, 0.5], PeriodicSite: O (1.92, 1.918, 3.841) [0.5, 0.5, 1.0], PeriodicSite: O (1.919, 3.836, 1.92) [0.5, 1.0, 0.5], PeriodicSite: O (-0.0002801, 1.918, 1.921) [-2.6e-07, 0.5, 0.5]]",56.591825126869544,"[Element Eu, Element Ge, Element O, Element O, Element O]",True,True,-2.6078391462499995,0.0,0.0
1027,mp,mp-989557.cif,Y1 Tc1 N3,YTcN3,Amm2,4.198095212471604,4.198095212471604,4.066441,90.0,90.0,123.16560638452025,"(True, True, True)","[PeriodicSite: Y (1.998, 2.443, 2.033) [0.1692, 0.8308, 0.5], PeriodicSite: Tc (1.998, 0.1869, 0.0) [0.4747, 0.5253, 0.0], PeriodicSite: N (2.665, -1.889, 0.0) [0.9229, 0.4111, 0.0], PeriodicSite: N (1.331, -1.889, 0.0) [0.5889, 0.07714, 0.0], PeriodicSite: N (1.998, 0.07504, 2.033) [0.4898, 0.5102, 0.5]]",59.9919085742968,"[Element Y, Element Tc, Element N, Element N, Element N]",False,False,-0.753542543333333,0.06251445233333008,0.0
1028,mp,mp-984554.cif,B1 Pb1 O3,BPbO3,Pm-3m,3.565976,3.565976,3.565976,90.0,90.0,90.0,"(True, True, True)","[PeriodicSite: B (1.783, 1.783, 1.783) [0.5, 0.5, 0.5], PeriodicSite: Pb (0.0, 0.0, 0.0) [0.0, 0.0, 0.0], PeriodicSite: O (1.783, 1.783, 0.0) [0.5, 0.5, 0.0], PeriodicSite: O (1.783, 0.0, 1.783) [0.5, 0.0, 0.5], PeriodicSite: O (0.0, 1.783, 1.783) [0.0, 0.5, 0.5]]",45.34560992453003,"[Element B, Element Pb, Element O, Element O, Element O]",False,False,-1.0645641590833335,1.0795439214285585,0.0
1029,mp,mp-9833.cif,Pr1 Ga1 O3,PrGaO3,Pm-3m,4.603177,4.603177,4.603177,90.0,90.0,90.0,"(True, True, True)","[PeriodicSite: Pr (2.302, 2.302, 2.302) [0.5, 0.5, 0.5], PeriodicSite: Ga (0.0, 0.0, 0.0) [0.0, 0.0, 0.0], PeriodicSite: O (0.0, 2.302, 2.302) [0.0, 0.5, 0.5], PeriodicSite: O (2.302, 0.0, 2.302) [0.5, 0.0, 0.5], PeriodicSite: O (2.302, 2.302, 0.0) [0.5, 0.5, 0.0]]",97.53781528000668,"[Element Pr, Element Ga, Element O, Element O, Element O]",False,True,-1.59254538975,1.474403437857137,0.0
1030,mp,mp-29798.cif,Tl1 Br1 O3,TlBrO3,R3m,4.454219760264706,4.454220478491551,4.4542198044089645,86.79052411418647,86.79052888669877,86.7905219733485,"(True, True, True)","[PeriodicSite: Tl (0.04724, 0.04523, 0.04944) [0.01008, 0.01008, 0.01008], PeriodicSite: Br (2.344, 2.244, 2.453) [0.5, 0.5, 0.5], PeriodicSite: O (0.6994, 2.497, 2.642) [0.1272, 0.5584, 0.5584], PeriodicSite: O (2.607, 2.497, 0.8185) [0.5584, 0.5584, 0.1272], PeriodicSite: O (2.525, 0.5904, 2.642) [0.5584, 0.1272, 0.5584]]",87.97115887456695,"[Element Tl, Element Br, Element O, Element O, Element O]",False,False,-0.661591285916667,0.0072877472499977,3.5098000000000003
1031,mp,mp-972066.cif,Zr1 Al1 O3,ZrAlO3,Pm-3m,3.672301,3.672301,3.672301,90.0,90.0,90.0,"(True, True, True)","[PeriodicSite: Zr (0.0, 0.0, 0.0) [0.0, 0.0, 0.0], PeriodicSite: Al (1.836, 1.836, 1.836) [0.5, 0.5, 0.5], PeriodicSite: O (1.836, 1.836, 0.0) [0.5, 0.5, 0.0], PeriodicSite: O (1.836, 0.0, 1.836) [0.5, 0.0, 0.5], PeriodicSite: O (0.0, 1.836, 1.836) [0.0, 0.5, 0.5]]",49.523897122439884,"[Element Zr, Element Al, Element O, Element O, Element O]",False,False,-2.9470168992499994,0.5159898235999894,0.0
1032,mp,mp-19053.cif,La1 V1 O3,LaVO3,Pm-3m,3.950068,3.950068,3.950068,90.0,90.0,90.0,"(True, True, True)","[PeriodicSite: La (1.975, 1.975, 1.975) [0.5, 0.5, 0.5], PeriodicSite: V (0.0, 0.0, 0.0) [0.0, 0.0, 0.0], PeriodicSite: O (1.975, 0.0, 0.0) [0.5, 0.0, 0.0], PeriodicSite: O (0.0, 1.975, 0.0) [0.0, 0.5, 0.0], PeriodicSite: O (0.0, 0.0, 1.975) [0.0, 0.0, 0.5]]",61.633057964794716,"[Element La, Element V, Element O, Element O, Element O]",False,True,-3.1028064402500006,0.17725938699999944,0.0
1033,mp,mp-3654.cif,Rb1 Ca1 F3,RbCaF3,Pm-3m,4.45428814,4.45428814,4.45428814,90.0,90.0,90.0,"(True, True, True)","[PeriodicSite: Rb (0.0, 0.0, 0.0) [-0.0, -0.0, -0.0], PeriodicSite: Ca (2.227, 2.227, 2.227) [0.5, 0.5, 0.5], PeriodicSite: F (2.227, 0.0, 2.227) [0.5, 0.0, 0.5], PeriodicSite: F (2.227, 2.227, 0.0) [0.5, 0.5, 0.0], PeriodicSite: F (0.0, 2.227, 2.227) [0.0, 0.5, 0.5]]",88.37611823763214,"[Element Rb, Element Ca, Element F, Element F, Element F]",True,False,-3.718474268999999,0.0,6.3971
1034,mp,mp-977112.cif,Na1 Sr1 O3,NaSrO3,Pm-3m,4.20833,4.20833,4.20833,90.0,90.0,90.0,"(True, True, True)","[PeriodicSite: Na (2.104, 2.104, 2.104) [0.5, 0.5, 0.5], PeriodicSite: Sr (0.0, 0.0, 0.0) [0.0, 0.0, 0.0], PeriodicSite: O (2.104, 2.104, 0.0) [0.5, 0.5, 0.0], PeriodicSite: O (2.104, 0.0, 2.104) [0.5, 0.0, 0.5], PeriodicSite: O (0.0, 2.104, 2.104) [0.0, 0.5, 0.5]]",74.52969847814956,"[Element Na, Element Sr, Element O, Element O, Element O]",False,True,-1.3082994138936783,0.5388160246666684,0.0
1035,mp,mp-1416619.cif,Y1 Sb1 O3,YSbO3,Pm-3m,4.250393,4.250393,4.250393,90.0,90.0,90.0,"(True, True, True)","[PeriodicSite: Y (0.0, 0.0, 0.0) [0.0, 0.0, 0.0], PeriodicSite: Sb (2.125, 2.125, 2.125) [0.5, 0.5, 0.5], PeriodicSite: O (2.125, 2.125, 0.0) [0.5, 0.5, 0.0], PeriodicSite: O (2.125, 0.0, 2.125) [0.5, 0.0, 0.5], PeriodicSite: O (0.0, 2.125, 2.125) [0.0, 0.5, 0.5]]",76.78692265678544,"[Element Y, Element Sb, Element O, Element O, Element O]",False,False,-1.9191664065833336,0.9961316007499992,0.0
1036,mp,mp-973136.cif,Li1 Sm1 O3,LiSmO3,Pm-3m,3.734836,3.734836,3.734836,90.0,90.0,90.0,"(True, True, True)","[PeriodicSite: Li (1.867, 1.867, 1.867) [0.5, 0.5, 0.5], PeriodicSite: Sm (0.0, 0.0, 0.0) [0.0, 0.0, 0.0], PeriodicSite: O (1.867, 1.867, 0.0) [0.5, 0.5, 0.0], PeriodicSite: O (1.867, 0.0, 1.867) [0.5, 0.0, 0.5], PeriodicSite: O (0.0, 1.867, 1.867) [0.0, 0.5, 0.5]]",52.097227165665274,"[Element Li, Element Sm, Element O, Element O, Element O]",False,True,-2.2913902909166666,0.3081785753392854,0.0
1037,mp,mp-1435972.cif,Y1 Co1 O3,YCoO3,Pm-3m,3.785831,3.785831,3.785831,90.0,90.0,90.0,"(True, True, True)","[PeriodicSite: Y (0.0, 0.0, 0.0) [0.0, 0.0, 0.0], PeriodicSite: Co (1.893, 1.893, 1.893) [0.5, 0.5, 0.5], PeriodicSite: O (1.893, 1.893, 0.0) [0.5, 0.5, 0.0], PeriodicSite: O (1.893, 0.0, 1.893) [0.5, 0.0, 0.5], PeriodicSite: O (0.0, 1.893, 1.893) [0.0, 0.5, 0.5]]",54.26048474581901,"[Element Y, Element Co, Element O, Element O, Element O]",False,False,-2.3751839455833332,0.23033052950000155,0.8330000000000002
1038,mp,mp-3846.cif,La1 B1 Pd3,LaBPd3,Pm-3m,4.417416,4.417416,4.417416,90.0,90.0,90.0,"(True, True, True)","[PeriodicSite: La (0.0, 0.0, 0.0) [0.0, 0.0, 0.0], PeriodicSite: B (2.209, 2.209, 2.209) [0.5, 0.5, 0.5], PeriodicSite: Pd (0.0, 2.209, 2.209) [0.0, 0.5, 0.5], PeriodicSite: Pd (2.209, 2.209, 0.0) [0.5, 0.5, 0.0], PeriodicSite: Pd (2.209, 0.0, 2.209) [0.5, 0.0, 0.5]]",86.19953034770906,"[Element La, Element B, Element Pd, Element Pd, Element Pd]",False,False,-0.5622185288333327,0.14408425520000012,0.0
1039,mp,mp-754524.cif,Ce1 Ti1 O3,CeTiO3,Pm-3m,3.942692,3.942692,3.942692,90.0,90.0,90.0,"(True, True, True)","[PeriodicSite: Ce (1.971, 1.971, 1.971) [0.5, 0.5, 0.5], PeriodicSite: Ti (0.0, 0.0, 0.0) [0.0, 0.0, 0.0], PeriodicSite: O (1.971, 0.0, 0.0) [0.5, 0.0, 0.0], PeriodicSite: O (0.0, 1.971, 0.0) [0.0, 0.5, 0.0], PeriodicSite: O (0.0, 0.0, 1.971) [0.0, 0.0, 0.5]]",61.288438271041045,"[Element Ce, Element Ti, Element O, Element O, Element O]",False,True,-3.4992100989166666,0.08380945625000358,0.0
1040,mp,mp-974337.cif,Ru1 Pb1 O3,RuPbO3,Pm-3m,4.000143,4.000143,4.000143,90.0,90.0,90.0,"(True, True, True)","[PeriodicSite: Ru (0.0, 0.0, 0.0) [0.0, 0.0, 0.0], PeriodicSite: Pb (2.0, 2.0, 2.0) [0.5, 0.5, 0.5], PeriodicSite: O (0.0, 0.0, 2.0) [0.0, 0.0, 0.5], PeriodicSite: O (0.0, 2.0, 0.0) [0.0, 0.5, 0.0], PeriodicSite: O (2.0, 0.0, 0.0) [0.5, 0.0, 0.0]]",64.0068642453909,"[Element Ru, Element Pb, Element O, Element O, Element O]",False,True,-1.3059536892500005,0.1759832162013879,0.0
1041,mp,mp-1224811.cif,Ga1 Ni3 Sb1,GaNi3Sb,P-6m2,4.1287230131769554,4.1287230131769554,4.964123,90.0,90.0,119.99222832385195,"(True, True, True)","[PeriodicSite: Ga (-2.065, -1.192, -3.723) [0.6667, 0.3333, 0.75], PeriodicSite: Ni (-2.065, 3.575, -2.504) [5e-06, 1.0, 0.5044], PeriodicSite: Ni (-2.065, 3.575, -4.942) [5e-06, 1.0, 0.9956], PeriodicSite: Ni (-2.065, -1.192, -1.241) [0.6667, 0.3333, 0.25], PeriodicSite: Sb (-2.065, 1.192, -1.241) [0.3333, 0.6667, 0.25]]",73.2889782229094,"[Element Ga, Element Ni, Element Ni, Element Ni, Element Sb]",False,False,-0.19009813549999918,0.16502519099999713,0.0
1042,mp,mp-542103.cif,Tb1 Rh3 C1,TbRh3C,Pm-3m,4.15536456,4.15536456,4.15536456,90.0,90.0,90.0,"(True, True, True)","[PeriodicSite: Tb (0.0, 0.0, 0.0) [-0.0, -0.0, -0.0], PeriodicSite: Rh (0.0, 2.078, 2.078) [-0.0, 0.5, 0.5], PeriodicSite: Rh (2.078, 2.078, 0.0) [0.5, 0.5, -0.0], PeriodicSite: Rh (2.078, 0.0, 2.078) [0.5, -0.0, 0.5], PeriodicSite: C (2.078, 2.078, 2.078) [0.5, 0.5, 0.5]]",71.75090685055872,"[Element Tb, Element Rh, Element Rh, Element Rh, Element C]",True,False,-0.49292854549999987,0.0,0.0
1043,mp,mp-635460.cif,V3 Au1 N1,V3AuN,Pm-3m,4.879088,4.879088,4.879088,90.0,90.0,90.0,"(True, True, True)","[PeriodicSite: V (0.0, 2.44, 2.44) [0.0, 0.5, 0.5], PeriodicSite: V (2.44, 2.44, 0.0) [0.5, 0.5, 0.0], PeriodicSite: V (2.44, 0.0, 2.44) [0.5, 0.0, 0.5], PeriodicSite: Au (2.44, 2.44, 2.44) [0.5, 0.5, 0.5], PeriodicSite: N (0.0, 0.0, 0.0) [0.0, 0.0, 0.0]]",116.14912797757363,"[Element V, Element V, Element V, Element Au, Element N]",False,True,2.2238222570000006,2.8877223946666666,0.0