,provider,id,Full_Formula,formula,space_group,a_lattice_param,b_lattice_param,c_lattice_param,aplha_degree,beta_degree,gamma_degree,pbc,sits,volume,species_at_sites,is_stable,is_magnetic,formation_energy,energy_above_hull,band_gap
561,mp,mp-1099619.cif,Eu1 Mn1 O3,EuMnO3,Pm-3m,3.876972,3.876972,3.876972,90.0,90.0,90.0,"(True, True, True)","[PeriodicSite: Eu (1.938, 1.938, 1.938) [0.5, 0.5, 0.5], PeriodicSite: Mn (0.0, 0.0, 0.0) [0.0, 0.0, 0.0], PeriodicSite: O (1.938, 0.0, 0.0) [0.5, 0.0, 0.0], PeriodicSite: O (0.0, 1.938, 0.0) [0.0, 0.5, 0.0], PeriodicSite: O (0.0, 0.0, 1.938) [0.0, 0.0, 0.5]]",58.274424527282676,"[Element Eu, Element Mn, Element O, Element O, Element O]",False,True,-2.610860828836208,0.04889609850000021,0.0
562,mp,mp-11597.cif,Nd1 B1 Pt3,NdBPt3,P4mm,4.02110246,4.02110246,5.08640514,90.0,90.0,90.0,"(True, True, True)","[PeriodicSite: Nd (0.0, 0.0, 4.997) [-0.0, -0.0, 0.9825], PeriodicSite: B (2.011, 2.011, 3.495) [0.5, 0.5, 0.687], PeriodicSite: Pt (0.0, 2.011, 2.541) [-0.0, 0.5, 0.4995], PeriodicSite: Pt (2.011, 2.011, 0.5053) [0.5, 0.5, 0.09934], PeriodicSite: Pt (2.011, 0.0, 2.541) [0.5, 0.0, 0.4995]]",82.2434325745782,"[Element Nd, Element B, Element Pt, Element Pt, Element Pt]",True,False,-0.8671155033333328,0.0,0.0
563,mp,mp-1094118.cif,Mn3 In1 C1,Mn3InC,Pm-3m,3.948665,3.948665,3.948665,90.0,90.0,90.0,"(True, True, True)","[PeriodicSite: Mn (1.974, 0.0, 0.0) [0.5, 0.0, 0.0], PeriodicSite: Mn (0.0, 0.0, 1.974) [0.0, 0.0, 0.5], PeriodicSite: Mn (0.0, 1.974, 0.0) [0.0, 0.5, 0.0], PeriodicSite: In (1.974, 1.974, 1.974) [0.5, 0.5, 0.5], PeriodicSite: C (0.0, 0.0, 0.0) [0.0, 0.0, 0.0]]",61.56740810448699,"[Element Mn, Element Mn, Element Mn, Element In, Element C]",False,True,0.027068073741379806,0.09823857784782497,0.0
564,mp,mp-1207055.cif,Mn3 Al1 N1,Mn3AlN,Pm-3m,3.76964,3.76964,3.76964,90.0,90.0,90.0,"(True, True, True)","[PeriodicSite: Mn (1.885, 0.0, 0.0) [0.5, 0.0, 0.0], PeriodicSite: Mn (0.0, 1.885, 0.0) [0.0, 0.5, 0.0], PeriodicSite: Mn (0.0, 0.0, 1.885) [0.0, 0.0, 0.5], PeriodicSite: Al (1.885, 1.885, 1.885) [0.5, 0.5, 0.5], PeriodicSite: N (0.0, 0.0, 0.0) [0.0, 0.0, 0.0]]",53.56728453372934,"[Element Mn, Element Mn, Element Mn, Element Al, Element N]",False,True,-0.4445114477586216,0.18924735424138106,0.0
565,mp,mp-1186167.cif,Na1 Si1 O3,NaSiO3,Pm-3m,3.561251,3.561251,3.561251,90.0,90.0,90.0,"(True, True, True)","[PeriodicSite: Na (0.0, 0.0, 0.0) [0.0, 0.0, 0.0], PeriodicSite: Si (1.781, 1.781, 1.781) [0.5, 0.5, 0.5], PeriodicSite: O (1.781, 1.781, 0.0) [0.5, 0.5, 0.0], PeriodicSite: O (1.781, 0.0, 1.781) [0.5, 0.0, 0.5], PeriodicSite: O (0.0, 1.781, 1.781) [0.0, 0.5, 0.5]]",45.165596736968496,"[Element Na, Element Si, Element O, Element O, Element O]",False,False,-2.359126618560345,0.25493713337500346,0.0
566,mp,mp-1184939.cif,K1 Li1 O3,KLiO3,Pm-3m,4.048757,4.048757,4.048757,90.0,90.0,90.0,"(True, True, True)","[PeriodicSite: K (0.0, 0.0, 0.0) [0.0, 0.0, 0.0], PeriodicSite: Li (2.024, 2.024, 2.024) [0.5, 0.5, 0.5], PeriodicSite: O (2.024, 2.024, 0.0) [0.5, 0.5, 0.0], PeriodicSite: O (2.024, 0.0, 2.024) [0.5, 0.0, 0.5], PeriodicSite: O (0.0, 2.024, 2.024) [0.0, 0.5, 0.5]]",66.36897884792486,"[Element K, Element Li, Element O, Element O, Element O]",False,True,-0.7547323605166667,0.4984093709999984,0.0
567,mp,mp-1183298.cif,Ba1 Re1 O3,BaReO3,Pm-3m,4.064732,4.064732,4.064732,90.0,90.0,90.0,"(True, True, True)","[PeriodicSite: Ba (0.0, 0.0, 0.0) [0.0, 0.0, 0.0], PeriodicSite: Re (2.032, 2.032, 2.032) [0.5, 0.5, 0.5], PeriodicSite: O (2.032, 2.032, 0.0) [0.5, 0.5, 0.0], PeriodicSite: O (2.032, 0.0, 2.032) [0.5, 0.0, 0.5], PeriodicSite: O (0.0, 2.032, 2.032) [0.0, 0.5, 0.5]]",67.15769002397445,"[Element Ba, Element Re, Element O, Element O, Element O]",False,False,-2.3726002282499996,0.1361230296666438,0.0
568,mp,mp-1069774.cif,U1 B1 Rh3,UBRh3,Pm-3m,4.233953,4.233953,4.233953,90.0,90.0,90.0,"(True, True, True)","[PeriodicSite: U (0.0, 0.0, 0.0) [0.0, 0.0, 0.0], PeriodicSite: B (2.117, 2.117, 2.117) [0.5, 0.5, 0.5], PeriodicSite: Rh (0.0, 2.117, 2.117) [0.0, 0.5, 0.5], PeriodicSite: Rh (2.117, 2.117, 0.0) [0.5, 0.5, 0.0], PeriodicSite: Rh (2.117, 0.0, 2.117) [0.5, 0.0, 0.5]]",75.89935725946259,"[Element U, Element B, Element Rh, Element Rh, Element Rh]",False,True,-0.5434239958333336,0.05523639378571232,0.0
569,mp,mp-1183476.cif,Be1 Re1 O3,BeReO3,Pm-3m,3.454411,3.454411,3.454411,90.0,90.0,90.0,"(True, True, True)","[PeriodicSite: Be (1.727, 1.727, 1.727) [0.5, 0.5, 0.5], PeriodicSite: Re (0.0, 0.0, 0.0) [0.0, 0.0, 0.0], PeriodicSite: O (1.727, 1.727, 0.0) [0.5, 0.5, 0.0], PeriodicSite: O (1.727, 0.0, 1.727) [0.5, 0.0, 0.5], PeriodicSite: O (0.0, 1.727, 1.727) [0.0, 0.5, 0.5]]",41.22133224745682,"[Element Be, Element Re, Element O, Element O, Element O]",False,True,-1.0098826152500002,1.3708954873333319,0.0
570,mp,mp-1187421.cif,Th1 Be1 O3,ThBeO3,Pm-3m,3.659297,3.659297,3.659297,90.0,90.0,90.0,"(True, True, True)","[PeriodicSite: Th (0.0, 0.0, 0.0) [0.0, 0.0, 0.0], PeriodicSite: Be (1.83, 1.83, 1.83) [0.5, 0.5, 0.5], PeriodicSite: O (1.83, 1.83, 0.0) [0.5, 0.5, 0.0], PeriodicSite: O (1.83, 0.0, 1.83) [0.5, 0.0, 0.5], PeriodicSite: O (0.0, 1.83, 1.83) [0.0, 0.5, 0.5]]",48.99965010566739,"[Element Th, Element Be, Element O, Element O, Element O]",False,False,-3.4596541622500006,0.4029256390000011,2.6967999999999996
571,mp,mp-1183701.cif,Ce1 Ta1 O3,CeTaO3,Pm-3m,4.054684,4.054684,4.054684,90.0,90.0,90.0,"(True, True, True)","[PeriodicSite: Ce (0.0, 0.0, 0.0) [0.0, 0.0, 0.0], PeriodicSite: Ta (2.027, 2.027, 2.027) [0.5, 0.5, 0.5], PeriodicSite: O (2.027, 2.027, 0.0) [0.5, 0.5, 0.0], PeriodicSite: O (2.027, 0.0, 2.027) [0.5, 0.0, 0.5], PeriodicSite: O (0.0, 2.027, 2.027) [0.0, 0.5, 0.5]]",66.66087960201669,"[Element Ce, Element Ta, Element O, Element O, Element O]",False,True,-3.056778816250001,0.3486056627187448,0.0
572,mp,mp-10039.cif,Pr3 Al1 C1,Pr3AlC,Pm-3m,5.137283,5.137283,5.137283,90.0,90.0,90.0,"(True, True, True)","[PeriodicSite: Pr (2.569, 2.569, 0.0) [0.5, 0.5, 0.0], PeriodicSite: Pr (2.569, 0.0, 2.569) [0.5, 0.0, 0.5], PeriodicSite: Pr (0.0, 2.569, 2.569) [0.0, 0.5, 0.5], PeriodicSite: Al (0.0, 0.0, 0.0) [0.0, 0.0, 0.0], PeriodicSite: C (2.569, 2.569, 2.569) [0.5, 0.5, 0.5]]",135.58151165215526,"[Element Pr, Element Pr, Element Pr, Element Al, Element C]",False,False,-0.14652925649999987,0.054900408666667566,0.0
573,mp,mp-1016837.cif,Sn1 Hg1 O3,SnHgO3,Pm-3m,4.081489,4.081489,4.081489,90.0,90.0,90.0,"(True, True, True)","[PeriodicSite: Sn (2.041, 2.041, 2.041) [0.5, 0.5, 0.5], PeriodicSite: Hg (0.0, 0.0, 0.0) [0.0, 0.0, 0.0], PeriodicSite: O (2.041, 2.041, 0.0) [0.5, 0.5, 0.0], PeriodicSite: O (2.041, 0.0, 2.041) [0.5, 0.0, 0.5], PeriodicSite: O (0.0, 2.041, 2.041) [0.0, 0.5, 0.5]]",67.99169860966235,"[Element Sn, Element Hg, Element O, Element O, Element O]",False,False,-1.1816342032500002,0.3388397035000006,0.0
574,mp,mp-1183176.cif,Al1 Ni1 O3,AlNiO3,Pm-3m,3.657863,3.657863,3.657863,90.0,90.0,90.0,"(True, True, True)","[PeriodicSite: Al (0.0, 0.0, 0.0) [0.0, 0.0, 0.0], PeriodicSite: Ni (1.829, 1.829, 1.829) [0.5, 0.5, 0.5], PeriodicSite: O (0.0, 0.0, 1.829) [0.0, 0.0, 0.5], PeriodicSite: O (0.0, 1.829, 0.0) [0.0, 0.5, 0.0], PeriodicSite: O (1.829, 0.0, 0.0) [0.5, 0.0, 0.0]]",48.94206694176443,"[Element Al, Element Ni, Element O, Element O, Element O]",False,True,-1.3872194832500007,0.8695998699772725,0.0
575,mp,mp-1209227.cif,Rb1 Ca1 Br3,RbCaBr3,Pm-3m,5.73669,5.73669,5.73669,90.0,90.0,90.0,"(True, True, True)","[PeriodicSite: Rb (2.868, 2.868, 2.868) [0.5, 0.5, 0.5], PeriodicSite: Ca (0.0, 0.0, 0.0) [0.0, 0.0, 0.0], PeriodicSite: Br (2.868, 0.0, 0.0) [0.5, 0.0, 0.0], PeriodicSite: Br (0.0, 2.868, 0.0) [0.0, 0.5, 0.0], PeriodicSite: Br (0.0, 0.0, 2.868) [0.0, 0.0, 0.5]]",188.79224295977733,"[Element Rb, Element Ca, Element Br, Element Br, Element Br]",False,False,-2.3108101595,0.02366151999999966,4.0839
576,mp,mp-1184051.cif,Cu1 Bi1 O3,CuBiO3,Pm-3m,3.850058,3.850058,3.850058,90.0,90.0,90.0,"(True, True, True)","[PeriodicSite: Cu (0.0, 0.0, 0.0) [0.0, 0.0, 0.0], PeriodicSite: Bi (1.925, 1.925, 1.925) [0.5, 0.5, 0.5], PeriodicSite: O (0.0, 0.0, 1.925) [0.0, 0.0, 0.5], PeriodicSite: O (0.0, 1.925, 0.0) [0.0, 0.5, 0.0], PeriodicSite: O (1.925, 0.0, 0.0) [0.5, 0.0, 0.0]]",57.06920415385441,"[Element Cu, Element Bi, Element O, Element O, Element O]",False,False,-1.1031954652500005,0.16737918756250103,0.0
577,mp,mp-1184913.cif,In1 As1 O3,InAsO3,Pm-3m,3.933194,3.933194,3.933194,90.0,90.0,90.0,"(True, True, True)","[PeriodicSite: In (0.0, 0.0, 0.0) [0.0, 0.0, 0.0], PeriodicSite: As (1.967, 1.967, 1.967) [0.5, 0.5, 0.5], PeriodicSite: O (1.967, 1.967, 0.0) [0.5, 0.5, 0.0], PeriodicSite: O (1.967, 0.0, 1.967) [0.5, 0.0, 0.5], PeriodicSite: O (0.0, 1.967, 1.967) [0.0, 0.5, 0.5]]",60.84657034167246,"[Element In, Element As, Element O, Element O, Element O]",False,False,-1.1992298982499996,0.6146074497500003,0.0
578,mp,mp-1187465.cif,Ti1 Be1 O3,TiBeO3,Pm-3m,3.388902,3.388902,3.388902,90.0,90.0,90.0,"(True, True, True)","[PeriodicSite: Ti (0.0, 0.0, 0.0) [0.0, 0.0, 0.0], PeriodicSite: Be (1.694, 1.694, 1.694) [0.5, 0.5, 0.5], PeriodicSite: O (1.694, 1.694, 0.0) [0.5, 0.5, 0.0], PeriodicSite: O (1.694, 0.0, 1.694) [0.5, 0.0, 0.5], PeriodicSite: O (0.0, 1.694, 1.694) [0.0, 0.5, 0.5]]",38.92037628226892,"[Element Ti, Element Be, Element O, Element O, Element O]",False,False,-2.313068334916667,1.0298201949999957,0.0
579,mp,mp-1183150.cif,Ac1 Si1 O3,AcSiO3,Pm-3m,3.970175,3.970175,3.970175,90.0,90.0,90.0,"(True, True, True)","[PeriodicSite: Ac (0.0, 0.0, 0.0) [0.0, 0.0, 0.0], PeriodicSite: Si (1.985, 1.985, 1.985) [0.5, 0.5, 0.5], PeriodicSite: O (1.985, 1.985, 0.0) [0.5, 0.5, 0.0], PeriodicSite: O (1.985, 0.0, 1.985) [0.5, 0.0, 0.5], PeriodicSite: O (0.0, 1.985, 1.985) [0.0, 0.5, 0.5]]",62.5790478372491,"[Element Ac, Element Si, Element O, Element O, Element O]",False,False,-2.86900975975,0.4708205135000014,0.0
580,mp,mp-1184486.cif,Gd1 Er1 O3,GdErO3,Pm-3m,4.241146,4.241146,4.241146,90.0,90.0,90.0,"(True, True, True)","[PeriodicSite: Gd (0.0, 0.0, 0.0) [0.0, 0.0, 0.0], PeriodicSite: Er (2.121, 2.121, 2.121) [0.5, 0.5, 0.5], PeriodicSite: O (2.121, 2.121, 0.0) [0.5, 0.5, 0.0], PeriodicSite: O (2.121, 0.0, 2.121) [0.5, 0.0, 0.5], PeriodicSite: O (0.0, 2.121, 2.121) [0.0, 0.5, 0.5]]",76.28684769568456,"[Element Gd, Element Er, Element O, Element O, Element O]",False,True,-3.2420574332499994,0.7349588875000013,0.36570000000000036
581,mp,mp-1185564.cif,Cs1 Yb1 O3,CsYbO3,Pm-3m,4.601276,4.601276,4.601276,90.0,90.0,90.0,"(True, True, True)","[PeriodicSite: Cs (0.0, 0.0, 0.0) [0.0, 0.0, 0.0], PeriodicSite: Yb (2.301, 2.301, 2.301) [0.5, 0.5, 0.5], PeriodicSite: O (2.301, 2.301, 0.0) [0.5, 0.5, 0.0], PeriodicSite: O (2.301, 0.0, 2.301) [0.5, 0.0, 0.5], PeriodicSite: O (0.0, 2.301, 2.301) [0.0, 0.5, 0.5]]",97.41702295090637,"[Element Cs, Element Yb, Element O, Element O, Element O]",False,True,-1.6092451848362075,0.43131184599999983,0.0
582,mp,mp-1183168.cif,Ac1 V1 O3,AcVO3,Pm-3m,3.96789433,3.96789746,3.96789433,90.0,90.0,90.0,"(True, True, True)","[PeriodicSite: Ac (0.0, 0.0, 0.0) [-0.0, -0.0, -0.0], PeriodicSite: V (1.984, 1.984, 1.984) [0.5, 0.5, 0.5], PeriodicSite: O (1.984, 1.984, 0.0) [0.5, 0.5, -0.0], PeriodicSite: O (1.984, 0.0, 1.984) [0.5, 0.0, 0.5], PeriodicSite: O (0.0, 1.984, 1.984) [-0.0, 0.5, 0.5]]",62.471313314162764,"[Element Ac, Element V, Element O, Element O, Element O]",True,True,-3.1418324717500012,0.0,0.0
583,mp,mp-1188081.cif,Pu1 Ni1 O3,PuNiO3,Pm-3m,3.777442,3.777442,3.777442,90.0,90.0,90.0,"(True, True, True)","[PeriodicSite: Pu (0.0, 0.0, 0.0) [0.0, 0.0, 0.0], PeriodicSite: Ni (1.889, 1.889, 1.889) [0.5, 0.5, 0.5], PeriodicSite: O (1.889, 1.889, 0.0) [0.5, 0.5, 0.0], PeriodicSite: O (1.889, 0.0, 1.889) [0.5, 0.0, 0.5], PeriodicSite: O (0.0, 1.889, 1.889) [0.0, 0.5, 0.5]]",53.90057700340984,"[Element Pu, Element Ni, Element O, Element O, Element O]",False,True,-2.1620242232500004,0.5158323469999964,0.0
584,mp,mp-1070573.cif,La1 Al3 Cu1,LaAl3Cu,I4mm,6.132876206765784,6.132876206765784,6.132876206765784,139.1565836085073,139.1565836085073,59.13617398379508,"(True, True, True)","[PeriodicSite: La (0.0, 0.0, 10.64) [0.9972, 0.9972, -0.0], PeriodicSite: Al (0.0, 0.0, 4.298) [0.4029, 0.4029, -0.0], PeriodicSite: Al (2.14, -2.22e-16, 2.63) [0.2465, 0.7465, 0.5], PeriodicSite: Al (-2.22e-16, 2.14, 2.63) [0.7465, 0.2465, 0.5], PeriodicSite: Cu (0.0, 0.0, 6.73) [0.6308, 0.6308, 0.0]]",97.70717735024915,"[Element La, Element Al, Element Al, Element Al, Element Cu]",True,False,-0.47968945099999943,0.0,0.0
585,mp,mp-10270.cif,Sc1 Co3 C1,ScCo3C,Pm-3m,3.78085852,3.78097813,3.78097813,90.0,90.0,90.0,"(True, True, True)","[PeriodicSite: Sc (0.0, 0.0, 0.0) [0.0, -0.0, -0.0], PeriodicSite: Co (0.0, 1.89, 1.89) [-0.0, 0.5, 0.5], PeriodicSite: Co (1.89, 0.0, 1.89) [0.5, 0.0, 0.5], PeriodicSite: Co (1.89, 1.89, 0.0) [0.5, 0.5, 0.0], PeriodicSite: C (1.89, 1.89, 1.89) [0.5, 0.5, 0.5]]",54.05038066831004,"[Element Sc, Element Co, Element Co, Element Co, Element C]",True,False,-0.2945452794999994,0.0,0.0
586,mp,mp-1183451.cif,Be1 Pt1 O3,BePtO3,Pm-3m,3.502685,3.502685,3.502685,90.0,90.0,90.0,"(True, True, True)","[PeriodicSite: Be (1.751, 1.751, 1.751) [0.5, 0.5, 0.5], PeriodicSite: Pt (0.0, 0.0, 0.0) [0.0, 0.0, 0.0], PeriodicSite: O (1.751, 1.751, 0.0) [0.5, 0.5, 0.0], PeriodicSite: O (1.751, 0.0, 1.751) [0.5, 0.0, 0.5], PeriodicSite: O (0.0, 1.751, 1.751) [0.0, 0.5, 0.5]]",42.973749466219274,"[Element Be, Element Pt, Element O, Element O, Element O]",False,False,-0.71658139225,1.0812861789999992,0.0
587,mp,mp-1076933.cif,Gd1 Al3 Cu1,GdAl3Cu,I4mm,6.0563017530076415,6.0563017530076415,6.0563017530076415,139.95145582497247,139.95145582497247,57.92701339980633,"(True, True, True)","[PeriodicSite: Gd (0.0, 0.0, 0.008368) [0.0007896, 0.0007896, 0.0], PeriodicSite: Al (0.0, 0.0, 4.324) [0.4081, 0.4081, -0.0], PeriodicSite: Al (2.074, 0.0, 2.638) [0.249, 0.749, 0.5], PeriodicSite: Al (0.0, 2.074, 2.638) [0.749, 0.249, 0.5], PeriodicSite: Cu (0.0, 0.0, 6.668) [0.6292, 0.6292, 0.0]]",91.15251225006766,"[Element Gd, Element Al, Element Al, Element Al, Element Cu]",True,True,-0.44977786600000014,0.0,0.0
588,mp,mp-1183980.cif,Ga1 Ge1 O3,GaGeO3,Pm-3m,3.754048,3.754048,3.754048,90.0,90.0,90.0,"(True, True, True)","[PeriodicSite: Ga (0.0, 0.0, 0.0) [0.0, 0.0, 0.0], PeriodicSite: Ge (1.877, 1.877, 1.877) [0.5, 0.5, 0.5], PeriodicSite: O (1.877, 1.877, 0.0) [0.5, 0.5, 0.0], PeriodicSite: O (1.877, 0.0, 1.877) [0.5, 0.0, 0.5], PeriodicSite: O (0.0, 1.877, 1.877) [0.0, 0.5, 0.5]]",52.90533441225176,"[Element Ga, Element Ge, Element O, Element O, Element O]",False,False,-1.4023863157500003,0.6725344789166652,0.0
589,mp,mp-1183395.cif,Ba1 W1 O3,BaWO3,Pm-3m,4.164356,4.164356,4.164356,90.0,90.0,90.0,"(True, True, True)","[PeriodicSite: Ba (0.0, 0.0, 0.0) [0.0, 0.0, 0.0], PeriodicSite: W (2.082, 2.082, 2.082) [0.5, 0.5, 0.5], PeriodicSite: O (2.082, 2.082, 0.0) [0.5, 0.5, 0.0], PeriodicSite: O (2.082, 0.0, 2.082) [0.5, 0.0, 0.5], PeriodicSite: O (0.0, 2.082, 2.082) [0.0, 0.5, 0.5]]",72.21768246815921,"[Element Ba, Element W, Element O, Element O, Element O]",False,True,-2.4645236692500005,0.15841601650000214,0.0
590,mp,mp-1070124.cif,La1 Si3 Rh1,LaSi3Rh,I4mm,5.7849729922446,5.7849729922446,5.7849729922446,136.68754764681245,136.68754764681245,62.91914797941444,"(True, True, True)","[PeriodicSite: La (0.0, 0.0, 9.864) [0.9995, 0.9995, 0.0], PeriodicSite: Si (0.0, 0.0, 4.065) [0.4119, 0.4119, 0.0], PeriodicSite: Si (2.135, -2.22e-16, 2.586) [0.262, 0.762, 0.5], PeriodicSite: Si (-2.22e-16, 2.135, 2.586) [0.762, 0.262, 0.5], PeriodicSite: Rh (0.0, 0.0, 6.46) [0.6545, 0.6545, -0.0]]",89.96151324914102,"[Element La, Element Si, Element Si, Element Si, Element Rh]",True,False,-0.8399889510000002,0.0,0.0
591,mp,mp-1068869.cif,Th1 Si3 Ir1,ThSi3Ir,I4mm,5.717121973850432,5.717121973850432,5.717121973850432,136.12387340355752,136.12387340355752,63.78888305920434,"(True, True, True)","[PeriodicSite: Th (0.0, 0.0, 9.699) [0.999, 0.999, -0.0], PeriodicSite: Si (0.0, 0.0, 3.983) [0.4103, 0.4103, -0.0], PeriodicSite: Si (2.136, 0.0, 2.569) [0.2647, 0.7647, 0.5], PeriodicSite: Si (0.0, 2.136, 2.569) [0.7647, 0.2647, 0.5], PeriodicSite: Ir (0.0, 0.0, 6.362) [0.6553, 0.6553, 0.0]]",88.57986979168912,"[Element Th, Element Si, Element Si, Element Si, Element Ir]",True,False,-0.8362979200000012,0.0,0.0
592,mp,mp-1017555.cif,Cs1 Be1 F3,CsBeF3,Pm-3m,4.035341,4.035341,4.035341,90.0,90.0,90.0,"(True, True, True)","[PeriodicSite: Cs (0.0, 0.0, 0.0) [0.0, 0.0, 0.0], PeriodicSite: Be (2.018, 2.018, 2.018) [0.5, 0.5, 0.5], PeriodicSite: F (0.0, 2.018, 2.018) [0.0, 0.5, 0.5], PeriodicSite: F (2.018, 2.018, 0.0) [0.5, 0.5, 0.0], PeriodicSite: F (2.018, 0.0, 2.018) [0.5, 0.0, 0.5]]",65.71139997579614,"[Element Cs, Element Be, Element F, Element F, Element F]",False,False,-2.745472154086207,0.6625523054999958,5.367100000000001
593,mp,mp-1013536.cif,Sr3 P1 N1,Sr3PN,Pm-3m,5.67,5.67,5.67,90.0,90.0,90.0,"(True, True, True)","[PeriodicSite: Sr (0.0, 2.835, 2.835) [0.0, 0.5, 0.5], PeriodicSite: Sr (2.835, 0.0, 2.835) [0.5, 0.0, 0.5], PeriodicSite: Sr (2.835, 2.835, 0.0) [0.5, 0.5, 0.0], PeriodicSite: P (2.835, 2.835, 2.835) [0.5, 0.5, 0.5], PeriodicSite: N (0.0, 0.0, 0.0) [0.0, 0.0, 0.0]]",182.28426299999998,"[Element Sr, Element Sr, Element Sr, Element P, Element N]",False,False,0.16186304833333337,1.0256546813625045,0.0
594,mp,mp-1013706.cif,Sr3 Bi1 Sb1,Sr3BiSb,Pm-3m,6.216867,6.216867,6.216867,90.0,90.0,90.0,"(True, True, True)","[PeriodicSite: Sr (0.0, 3.108, 3.108) [0.0, 0.5, 0.5], PeriodicSite: Sr (3.108, 0.0, 3.108) [0.5, 0.0, 0.5], PeriodicSite: Sr (3.108, 3.108, 0.0) [0.5, 0.5, 0.0], PeriodicSite: Bi (3.108, 3.108, 3.108) [0.5, 0.5, 0.5], PeriodicSite: Sb (0.0, 0.0, 0.0) [0.0, 0.0, 0.0]]",240.27839885840416,"[Element Sr, Element Sr, Element Sr, Element Bi, Element Sb]",False,False,-0.5313398559999996,0.4579950169999938,0.0
595,mp,mp-1068782.cif,Sm1 Si3 Os1,SmSi3Os,I4mm,5.785105781996583,5.785105781996583,5.785105781996583,137.29237881002064,137.29237881002064,61.98850036311564,"(True, True, True)","[PeriodicSite: Sm (0.0, 0.0, 9.893) [0.9975, 0.9975, 0.0], PeriodicSite: Si (0.0, 0.0, 4.162) [0.4196, 0.4196, -0.0], PeriodicSite: Si (2.107, 0.0, 2.591) [0.2613, 0.7613, 0.5], PeriodicSite: Si (0.0, 2.107, 2.591) [0.7613, 0.2613, 0.5], PeriodicSite: Os (0.0, 0.0, 6.49) [0.6543, 0.6543, -0.0]]",88.02160355719296,"[Element Sm, Element Si, Element Si, Element Si, Element Os]",True,False,-0.5809369910000001,0.0,0.0
596,mp,mp-1069809.cif,Ba1 Si3 Pt1,BaSi3Pt,I4mm,5.949318943965418,5.949318943965418,5.949318943965418,136.22566386937575,136.22566386937575,63.631647671740964,"(True, True, True)","[PeriodicSite: Ba (0.0, 0.0, 6.081) [0.6014, 0.6014, -0.0], PeriodicSite: Si (0.0, 0.0, 10.05) [0.994, 0.994, 0.0], PeriodicSite: Si (2.218, 0.0, 3.603) [0.3563, 0.8563, 0.5], PeriodicSite: Si (0.0, 2.218, 3.603) [0.8563, 0.3563, 0.5], PeriodicSite: Pt (0.0, 0.0, 2.535) [0.2508, 0.2508, -0.0]]",99.46186616984674,"[Element Ba, Element Si, Element Si, Element Si, Element Pt]",False,False,-0.553016668,0.002081448499999361,0.0
597,mp,mp-1224030.cif,In1 Cu1 O3,InCuO3,R3m,6.044282655277548,6.044282655277548,6.044282368232394,33.1383975719867,33.1383975719867,33.138395279691515,"(True, True, True)","[PeriodicSite: In (8.397, 0.0, 1.464) [0.4978, 0.4978, 0.4978], PeriodicSite: Cu (0.0515, 0.0, 0.008979) [0.003053, 0.003053, 0.003053], PeriodicSite: O (1.888, 0.0, 0.3291) [0.1119, 0.1119, 0.1119], PeriodicSite: O (15.07, 0.0, 2.628) [0.8934, 0.8934, 0.8934], PeriodicSite: O (5.791, 0.0, 1.01) [0.3433, 0.3433, 0.3433]]",58.73804230981655,"[Element In, Element Cu, Element O, Element O, Element O]",False,False,-1.3740413852499997,0.041818191625000445,0.0