,provider,id,Full_Formula,formula,space_group,a_lattice_param,b_lattice_param,c_lattice_param,aplha_degree,beta_degree,gamma_degree,pbc,sits,volume,species_at_sites,is_stable,is_magnetic,formation_energy,energy_above_hull,band_gap
151,mp,mp-1186401.cif,Pa1 Si1 O3,PaSiO3,Pm-3m,3.820904,3.820904,3.820904,90.0,90.0,90.0,"(True, True, True)","[PeriodicSite: Pa (0.0, 0.0, 0.0) [0.0, 0.0, 0.0], PeriodicSite: Si (1.91, 1.91, 1.91) [0.5, 0.5, 0.5], PeriodicSite: O (1.91, 1.91, 0.0) [0.5, 0.5, 0.0], PeriodicSite: O (1.91, 0.0, 1.91) [0.5, 0.0, 0.5], PeriodicSite: O (0.0, 1.91, 1.91) [0.0, 0.5, 0.5]]",55.782551954834126,"[Element Pa, Element Si, Element O, Element O, Element O]",False,True,-2.39843613125,1.0019819550000033,0.0
152,mp,mp-1070247.cif,Ba1 Ge3 Rh1,BaGe3Rh,I4mm,6.07321281025473,6.07321281025473,6.07321281025473,135.99540269290307,135.99540269290307,63.987442809318985,"(True, True, True)","[PeriodicSite: Ba (0.0, 0.0, 6.09) [0.5912, 0.5912, -0.0], PeriodicSite: Ge (0.0, 0.0, 10.28) [0.9982, 0.9982, -0.0], PeriodicSite: Ge (2.275, 0.0, 3.534) [0.3431, 0.8431, 0.5], PeriodicSite: Ge (0.0, 2.275, 3.534) [0.8431, 0.3431, 0.5], PeriodicSite: Rh (0.0, 0.0, 2.491) [0.2418, 0.2418, 0.0]]",106.66029636464248,"[Element Ba, Element Ge, Element Ge, Element Ge, Element Rh]",True,False,-0.562918801,0.0,0.0
153,mp,mp-1068906.cif,Ce1 Si3 Ir1,CeSi3Ir,I4mm,5.760735721284245,5.760735721284245,5.760735721284245,136.83561702941583,136.83561702941583,62.69106985384688,"(True, True, True)","[PeriodicSite: Ce (0.0, 0.0, 0.004004) [0.000407, 0.000407, -0.0], PeriodicSite: Si (0.0, 0.0, 4.105) [0.4172, 0.4172, 0.0], PeriodicSite: Si (2.119, 0.0, 2.627) [0.2669, 0.7669, 0.5], PeriodicSite: Si (0.0, 2.119, 2.627) [0.7669, 0.2669, 0.5], PeriodicSite: Ir (0.0, 0.0, 6.47) [0.6575, 0.6575, -0.0]]",88.36541769068084,"[Element Ce, Element Si, Element Si, Element Si, Element Ir]",True,True,-0.8407186230000001,0.0,0.0
154,mp,mp-1179184.cif,Tl1 Br1 O3,TlBrO3,Cm,3.658287999671704,7.079458695100212,4.212474899743618,87.66755087449208,115.73572582872067,95.37797282034494,"(True, True, True)","[PeriodicSite: Tl (2.724, 1.16, 1.336) [0.889, 0.006612, 0.0], PeriodicSite: Br (-1.648, 2.529, 2.569) [0.2436, 0.5575, 0.0], PeriodicSite: O (-2.398, 3.728, 3.788) [0.3662, 0.8196, 0.0], PeriodicSite: O (-0.8383, -0.5105, 1.939) [0.2332, 0.1852, 0.4572], PeriodicSite: O (0.6994, -0.1075, 2.901) [0.776, 0.1852, 0.5428]]",97.84323468975863,"[Element Tl, Element Br, Element O, Element O, Element O]",False,False,-0.1795073019166665,0.4893717312499981,0.054200000000000026
155,mp,mp-1187226.cif,Sr1 Re1 O3,SrReO3,Pm-3m,3.996911,3.996911,3.996911,90.0,90.0,90.0,"(True, True, True)","[PeriodicSite: Sr (0.0, 0.0, 0.0) [0.0, 0.0, 0.0], PeriodicSite: Re (1.998, 1.998, 1.998) [0.5, 0.5, 0.5], PeriodicSite: O (1.998, 1.998, 0.0) [0.5, 0.5, 0.0], PeriodicSite: O (1.998, 0.0, 1.998) [0.5, 0.0, 0.5], PeriodicSite: O (0.0, 1.998, 1.998) [0.0, 0.5, 0.5]]",63.851842473577,"[Element Sr, Element Re, Element O, Element O, Element O]",False,False,-2.4019939555833334,0.1261212551333326,0.0
156,mp,mp-1187389.cif,Tb1 V1 O3,TbVO3,Pm-3m,3.842924,3.842924,3.842924,90.0,90.0,90.0,"(True, True, True)","[PeriodicSite: Tb (0.0, 0.0, 0.0) [0.0, 0.0, 0.0], PeriodicSite: V (1.921, 1.921, 1.921) [0.5, 0.5, 0.5], PeriodicSite: O (1.921, 1.921, 0.0) [0.5, 0.5, 0.0], PeriodicSite: O (1.921, 0.0, 1.921) [0.5, 0.0, 0.5], PeriodicSite: O (0.0, 1.921, 1.921) [0.0, 0.5, 0.5]]",56.75255092161906,"[Element Tb, Element V, Element O, Element O, Element O]",False,True,-2.892921059250001,0.4001705770000008,0.0
157,mp,mp-1185545.cif,Cs1 Pb1 O3,CsPbO3,Pm-3m,4.480574,4.480574,4.480574,90.0,90.0,90.0,"(True, True, True)","[PeriodicSite: Cs (0.0, 0.0, 0.0) [0.0, 0.0, 0.0], PeriodicSite: Pb (2.24, 2.24, 2.24) [0.5, 0.5, 0.5], PeriodicSite: O (2.24, 2.24, 0.0) [0.5, 0.5, 0.0], PeriodicSite: O (2.24, 0.0, 2.24) [0.5, 0.0, 0.5], PeriodicSite: O (0.0, 2.24, 2.24) [0.0, 0.5, 0.5]]",89.94995765714654,"[Element Cs, Element Pb, Element O, Element O, Element O]",False,True,-1.1250294328362067,0.20790450233333324,0.0
158,mp,mp-1016886.cif,Mg1 V1 O3,MgVO3,Pm-3m,3.779221,3.779221,3.779221,90.0,90.0,90.0,"(True, True, True)","[PeriodicSite: Mg (0.0, 0.0, 0.0) [0.0, 0.0, 0.0], PeriodicSite: V (1.89, 1.89, 1.89) [0.5, 0.5, 0.5], PeriodicSite: O (1.89, 1.89, 0.0) [0.5, 0.5, 0.0], PeriodicSite: O (1.89, 0.0, 1.89) [0.5, 0.0, 0.5], PeriodicSite: O (0.0, 1.89, 1.89) [0.0, 0.5, 0.5]]",53.97676689030422,"[Element Mg, Element V, Element O, Element O, Element O]",False,True,-2.2651391952500006,0.5105881479999992,0.0
159,mp,mp-1013550.cif,Ca3 Sb1 P1,Ca3SbP,Pm-3m,5.38244377,5.38244377,5.38244377,90.0,90.0,90.0,"(True, True, True)","[PeriodicSite: Ca (0.0, 2.691, 2.691) [-0.0, 0.5, 0.5], PeriodicSite: Ca (2.691, 0.0, 2.691) [0.5, -0.0, 0.5], PeriodicSite: Ca (2.691, 2.691, 0.0) [0.5, 0.5, 0.0], PeriodicSite: Sb (0.0, 0.0, 0.0) [0.0, 0.0, 0.0], PeriodicSite: P (2.691, 2.691, 2.691) [0.5, 0.5, 0.5]]",155.9331687720289,"[Element Ca, Element Ca, Element Ca, Element Sb, Element P]",True,False,-1.0218048446666663,0.0,0.6583000000000001
160,mp,mp-1184936.cif,K1 Al1 O3,KAlO3,Pm-3m,3.867014,3.867014,3.867014,90.0,90.0,90.0,"(True, True, True)","[PeriodicSite: K (0.0, 0.0, 0.0) [0.0, 0.0, 0.0], PeriodicSite: Al (1.934, 1.934, 1.934) [0.5, 0.5, 0.5], PeriodicSite: O (1.934, 1.934, 0.0) [0.5, 0.5, 0.0], PeriodicSite: O (1.934, 0.0, 1.934) [0.5, 0.0, 0.5], PeriodicSite: O (0.0, 1.934, 1.934) [0.0, 0.5, 0.5]]",57.826543420211806,"[Element K, Element Al, Element O, Element O, Element O]",False,True,-2.0613500258499995,0.2883469903680522,0.0
161,mp,mp-10373.cif,Cr3 Pd1 N1,Cr3PdN,Pm-3m,3.839933,3.839933,3.839933,90.0,90.0,90.0,"(True, True, True)","[PeriodicSite: Cr (1.92, 0.0, 1.92) [0.5, 0.0, 0.5], PeriodicSite: Cr (0.0, 1.92, 1.92) [0.0, 0.5, 0.5], PeriodicSite: Cr (1.92, 1.92, 0.0) [0.5, 0.5, 0.0], PeriodicSite: Pd (0.0, 0.0, 0.0) [0.0, 0.0, 0.0], PeriodicSite: N (1.92, 1.92, 1.92) [0.5, 0.5, 0.5]]",56.62014018611297,"[Element Cr, Element Cr, Element Cr, Element Pd, Element N]",False,False,-0.24878827699999845,0.07472900266666826,0.0
162,mp,mp-1068661.cif,Zr1 B1 Rh3,ZrBRh3,Pm-3m,4.11326891,4.11326891,4.11325671,90.0,90.0,90.0,"(True, True, True)","[PeriodicSite: Zr (0.0, 0.0, 0.0) [0.0, 0.0, 0.0], PeriodicSite: B (2.057, 2.057, 2.057) [0.5, 0.5, 0.5], PeriodicSite: Rh (0.0, 2.057, 2.057) [0.0, 0.5, 0.5], PeriodicSite: Rh (2.057, 2.057, 0.0) [0.5, 0.5, 0.0], PeriodicSite: Rh (2.057, 0.0, 2.057) [0.5, 0.0, 0.5]]",69.59211264277012,"[Element Zr, Element B, Element Rh, Element Rh, Element Rh]",True,False,-0.7379468218333329,0.0,0.0
163,mp,mp-1186395.cif,Pa1 Hg1 O3,PaHgO3,Pm-3m,4.34288662,4.34288662,4.34288662,90.0,90.0,90.0,"(True, True, True)","[PeriodicSite: Pa (2.171, 2.171, 2.171) [0.5, 0.5, 0.5], PeriodicSite: Hg (0.0, 0.0, 0.0) [-0.0, -0.0, -0.0], PeriodicSite: O (2.171, 2.171, 0.0) [0.5, 0.5, -0.0], PeriodicSite: O (2.171, 0.0, 2.171) [0.5, -0.0, 0.5], PeriodicSite: O (0.0, 2.171, 2.171) [-0.0, 0.5, 0.5]]",81.90972617319578,"[Element Pa, Element Hg, Element O, Element O, Element O]",True,False,-2.80734497025,0.0,0.0
164,mp,mp-1016843.cif,Mg1 Os1 O3,MgOsO3,Pm-3m,3.916779,3.916779,3.916779,90.0,90.0,90.0,"(True, True, True)","[PeriodicSite: Mg (0.0, 0.0, 0.0) [0.0, 0.0, 0.0], PeriodicSite: Os (1.958, 1.958, 1.958) [0.5, 0.5, 0.5], PeriodicSite: O (1.958, 1.958, 0.0) [0.5, 0.5, 0.0], PeriodicSite: O (1.958, 0.0, 1.958) [0.5, 0.0, 0.5], PeriodicSite: O (0.0, 1.958, 1.958) [0.0, 0.5, 0.5]]",60.0879244515128,"[Element Mg, Element Os, Element O, Element O, Element O]",False,True,-1.3795095232499996,0.6486560360000038,0.0
165,mp,mp-1075921.cif,La1 Ni1 O3,LaNiO3,Pm-3m,3.856999,3.856999,3.856999,90.0,90.0,90.0,"(True, True, True)","[PeriodicSite: La (1.928, 1.928, 1.928) [0.5, 0.5, 0.5], PeriodicSite: Ni (0.0, 0.0, 0.0) [0.0, 0.0, 0.0], PeriodicSite: O (1.928, 0.0, 0.0) [0.5, 0.0, 0.0], PeriodicSite: O (0.0, 1.928, 0.0) [0.0, 0.5, 0.0], PeriodicSite: O (0.0, 0.0, 1.928) [0.0, 0.0, 0.5]]",57.378419163664574,"[Element La, Element Ni, Element O, Element O, Element O]",False,True,-2.4372900402499993,0.035178056000001234,0.0
166,mp,mp-1018628.cif,Sc1 Pt3 C1,ScPt3C,Pm-3m,4.247042,4.247042,4.247042,90.0,90.0,90.0,"(True, True, True)","[PeriodicSite: Sc (0.0, 0.0, 0.0) [0.0, 0.0, 0.0], PeriodicSite: Pt (0.0, 2.124, 2.124) [0.0, 0.5, 0.5], PeriodicSite: Pt (2.124, 2.124, 0.0) [0.5, 0.5, 0.0], PeriodicSite: Pt (2.124, 0.0, 2.124) [0.5, 0.0, 0.5], PeriodicSite: C (2.124, 2.124, 2.124) [0.5, 0.5, 0.5]]",76.60544990860922,"[Element Sc, Element Pt, Element Pt, Element Pt, Element C]",False,False,-0.17797217849999925,0.654000998499999,0.0
167,mp,mp-1183562.cif,Ca1 La1 O3,CaLaO3,Pm-3m,4.504726,4.504726,4.504726,90.0,90.0,90.0,"(True, True, True)","[PeriodicSite: Ca (0.0, 0.0, 0.0) [0.0, 0.0, 0.0], PeriodicSite: La (2.252, 2.252, 2.252) [0.5, 0.5, 0.5], PeriodicSite: O (2.252, 2.252, 0.0) [0.5, 0.5, 0.0], PeriodicSite: O (2.252, 0.0, 2.252) [0.5, 0.0, 0.5], PeriodicSite: O (0.0, 2.252, 2.252) [0.0, 0.5, 0.5]]",91.41240612908155,"[Element Ca, Element La, Element O, Element O, Element O]",False,True,-2.6682241122500003,0.5927827366249998,0.0
168,mp,mp-1184960.cif,K1 Mg1 O3,KMgO3,Pm-3m,4.127702,4.127702,4.127702,90.0,90.0,90.0,"(True, True, True)","[PeriodicSite: K (0.0, 0.0, 0.0) [0.0, 0.0, 0.0], PeriodicSite: Mg (2.064, 2.064, 2.064) [0.5, 0.5, 0.5], PeriodicSite: O (2.064, 2.064, 0.0) [0.5, 0.5, 0.0], PeriodicSite: O (2.064, 0.0, 2.064) [0.5, 0.0, 0.5], PeriodicSite: O (0.0, 2.064, 2.064) [0.0, 0.5, 0.5]]",70.32747214842628,"[Element K, Element Mg, Element O, Element O, Element O]",False,True,-1.4502506178500005,0.36418468000000015,0.0
169,mp,mp-1186801.cif,Pu1 Sb1 O3,PuSbO3,Pm-3m,4.315703,4.315703,4.315703,90.0,90.0,90.0,"(True, True, True)","[PeriodicSite: Pu (2.158, 2.158, 2.158) [0.5, 0.5, 0.5], PeriodicSite: Sb (0.0, 0.0, 0.0) [0.0, 0.0, 0.0], PeriodicSite: O (2.158, 2.158, 0.0) [0.5, 0.5, 0.0], PeriodicSite: O (2.158, 0.0, 2.158) [0.5, 0.0, 0.5], PeriodicSite: O (0.0, 2.158, 2.158) [0.0, 0.5, 0.5]]",80.38123021840794,"[Element Pu, Element Sb, Element O, Element O, Element O]",False,True,-2.1185151092500005,0.656019841666664,0.0
170,mp,mp-1017631.cif,Sc1 B1 Pd3,ScBPd3,Pm-3m,4.234957,4.234957,4.234957,90.0,90.0,90.0,"(True, True, True)","[PeriodicSite: Sc (0.0, 0.0, 0.0) [0.0, 0.0, 0.0], PeriodicSite: B (2.117, 2.117, 2.117) [0.5, 0.5, 0.5], PeriodicSite: Pd (0.0, 2.117, 2.117) [0.0, 0.5, 0.5], PeriodicSite: Pd (2.117, 2.117, 0.0) [0.5, 0.5, 0.0], PeriodicSite: Pd (2.117, 0.0, 2.117) [0.5, 0.0, 0.5]]",75.95336425446645,"[Element Sc, Element B, Element Pd, Element Pd, Element Pd]",False,False,-0.5442698488333327,0.15687319114286158,0.0
171,mp,mp-10601.cif,Y3 Ga1 C1,Y3GaC,Pm-3m,4.85428524,4.85428317,4.85429039,90.0,90.0,90.0,"(True, True, True)","[PeriodicSite: Y (2.427, 0.0, 2.427) [0.5, 0.0, 0.5], PeriodicSite: Y (2.427, 2.427, 0.0) [0.5, 0.5, -0.0], PeriodicSite: Y (0.0, 2.427, 2.427) [0.0, 0.5, 0.5], PeriodicSite: Ga (0.0, 0.0, 0.0) [-0.0, -0.0, 0.0], PeriodicSite: C (2.427, 2.427, 2.427) [0.5, 0.5, 0.5]]",114.38686351547275,"[Element Y, Element Y, Element Y, Element Ga, Element C]",True,False,-0.4781912369999993,0.0,0.0
172,mp,mp-1183436.cif,Be1 In1 O3,BeInO3,Pm-3m,3.556543,3.556543,3.556543,90.0,90.0,90.0,"(True, True, True)","[PeriodicSite: Be (1.778, 1.778, 1.778) [0.5, 0.5, 0.5], PeriodicSite: In (0.0, 0.0, 0.0) [0.0, 0.0, 0.0], PeriodicSite: O (1.778, 1.778, 0.0) [0.5, 0.5, 0.0], PeriodicSite: O (1.778, 0.0, 1.778) [0.5, 0.0, 0.5], PeriodicSite: O (0.0, 1.778, 1.778) [0.0, 0.5, 0.5]]",44.986705688153236,"[Element Be, Element In, Element O, Element O, Element O]",False,True,-1.5300627862499994,0.7102473781250005,0.0
173,mp,mp-1206344.cif,Mn1 Ag1 F3,MnAgF3,Pm-3m,4.40991,4.40991,4.40991,90.0,90.0,90.0,"(True, True, True)","[PeriodicSite: Mn (2.205, 2.205, 2.205) [0.5, 0.5, 0.5], PeriodicSite: Ag (0.0, 0.0, 0.0) [0.0, 0.0, 0.0], PeriodicSite: F (2.205, 0.0, 0.0) [0.5, 0.0, 0.0], PeriodicSite: F (0.0, 2.205, 0.0) [0.0, 0.5, 0.0], PeriodicSite: F (0.0, 0.0, 2.205) [0.0, 0.0, 0.5]]",85.76087012016227,"[Element Mn, Element Ag, Element F, Element F, Element F]",False,True,-1.3432501184195396,0.9313649240000039,0.0
174,mp,mp-1187460.cif,Th1 Mo1 O3,ThMoO3,Pm-3m,4.109289,4.109289,4.109289,90.0,90.0,90.0,"(True, True, True)","[PeriodicSite: Th (0.0, 0.0, 0.0) [0.0, 0.0, 0.0], PeriodicSite: Mo (2.055, 2.055, 2.055) [0.5, 0.5, 0.5], PeriodicSite: O (2.055, 2.055, 0.0) [0.5, 0.5, 0.0], PeriodicSite: O (2.055, 0.0, 2.055) [0.5, 0.0, 0.5], PeriodicSite: O (0.0, 2.055, 2.055) [0.0, 0.5, 0.5]]",69.39050638341453,"[Element Th, Element Mo, Element O, Element O, Element O]",False,True,-2.279176895250001,0.9487271415000027,0.0
175,mp,mp-1219803.cif,Pr1 Al3 Ag1,PrAl3Ag,I4mm,4.305298047748553,4.305298047746469,6.325608987922759,70.1394548937088,70.13946474763648,90.03529006494314,"(True, True, True)","[PeriodicSite: Pr (4.303, 4.303, 0.1355) [0.9875, 0.9875, 0.02476], PeriodicSite: Al (4.304, 2.151, 2.787) [0.7488, 0.2487, 0.5026], PeriodicSite: Al (2.151, 4.304, 2.787) [0.2487, 0.7488, 0.5026], PeriodicSite: Al (2.151, 2.151, 1.175) [0.3939, 0.3939, 0.212], PeriodicSite: Ag (4.304, 4.304, 4.203) [0.6211, 0.6211, 0.7581]]",102.82013017900812,"[Element Pr, Element Al, Element Al, Element Al, Element Ag]",True,False,-0.41507956833333354,0.0,0.0
176,mp,mp-1013584.cif,Ba3 Bi1 Sb1,Ba3BiSb,Pm-3m,6.537631,6.537631,6.537631,90.0,90.0,90.0,"(True, True, True)","[PeriodicSite: Ba (0.0, 3.269, 3.269) [0.0, 0.5, 0.5], PeriodicSite: Ba (3.269, 0.0, 3.269) [0.5, 0.0, 0.5], PeriodicSite: Ba (3.269, 3.269, 0.0) [0.5, 0.5, 0.0], PeriodicSite: Bi (0.0, 0.0, 0.0) [0.0, 0.0, 0.0], PeriodicSite: Sb (3.269, 3.269, 3.269) [0.5, 0.5, 0.5]]",279.42239633610365,"[Element Ba, Element Ba, Element Ba, Element Bi, Element Sb]",False,False,-0.6743203639999997,0.33680210820000056,0.0
177,mp,mp-10140.cif,Sc3 Tl1 B1,Sc3TlB,Pm-3m,4.690238,4.690238,4.690238,90.0,90.0,90.0,"(True, True, True)","[PeriodicSite: Sc (0.0, 2.345, 2.345) [0.0, 0.5, 0.5], PeriodicSite: Sc (2.345, 0.0, 2.345) [0.5, 0.0, 0.5], PeriodicSite: Sc (2.345, 2.345, 0.0) [0.5, 0.5, 0.0], PeriodicSite: Tl (0.0, 0.0, 0.0) [0.0, 0.0, 0.0], PeriodicSite: B (2.345, 2.345, 2.345) [0.5, 0.5, 0.5]]",103.17741501239456,"[Element Sc, Element Sc, Element Sc, Element Tl, Element B]",False,False,-0.3566117194999997,0.03394774022222258,0.0
178,mp,mp-1185417.cif,Li1 Yb1 O3,LiYbO3,Pm-3m,3.705058,3.705058,3.705058,90.0,90.0,90.0,"(True, True, True)","[PeriodicSite: Li (1.853, 1.853, 1.853) [0.5, 0.5, 0.5], PeriodicSite: Yb (0.0, 0.0, 0.0) [0.0, 0.0, 0.0], PeriodicSite: O (1.853, 1.853, 0.0) [0.5, 0.5, 0.0], PeriodicSite: O (1.853, 0.0, 1.853) [0.5, 0.0, 0.5], PeriodicSite: O (0.0, 1.853, 1.853) [0.0, 0.5, 0.5]]",50.86101616474106,"[Element Li, Element Yb, Element O, Element O, Element O]",False,True,-1.8045377779166665,0.32370121542857166,0.0
179,mp,mp-1016876.cif,Zn1 Si1 O3,ZnSiO3,Pm-3m,3.542246,3.542246,3.542246,90.0,90.0,90.0,"(True, True, True)","[PeriodicSite: Zn (0.0, 0.0, 0.0) [0.0, 0.0, 0.0], PeriodicSite: Si (1.771, 1.771, 1.771) [0.5, 0.5, 0.5], PeriodicSite: O (1.771, 1.771, 0.0) [0.5, 0.5, 0.0], PeriodicSite: O (1.771, 0.0, 1.771) [0.5, 0.0, 0.5], PeriodicSite: O (0.0, 1.771, 1.771) [0.0, 0.5, 0.5]]",44.4463555048899,"[Element Zn, Element Si, Element O, Element O, Element O]",False,False,-2.115085353250001,0.5788195979999964,0.0
180,mp,mp-1206123.cif,Al1 Fe3 H1,AlFe3H,Pm-3m,3.69954721,3.69954826,3.69956512,90.0,90.0,90.0,"(True, True, True)","[PeriodicSite: Al (1.85, 1.85, 1.85) [0.5, 0.5, 0.5], PeriodicSite: Fe (1.85, 0.0, 0.0) [0.5, 0.0, 0.0], PeriodicSite: Fe (0.0, 1.85, 0.0) [0.0, 0.5, 0.0], PeriodicSite: Fe (0.0, 0.0, 1.85) [0.0, -0.0, 0.5], PeriodicSite: H (0.0, 0.0, 0.0) [-0.0, -0.0, -0.0]]",50.634665689260885,"[Element Al, Element Fe, Element Fe, Element Fe, Element H]",True,True,-0.20549280099999975,0.0,0.0
181,mp,mp-1185613.cif,Mg1 Tl1 O3,MgTlO3,Pm-3m,3.968634,3.968634,3.968634,90.0,90.0,90.0,"(True, True, True)","[PeriodicSite: Mg (1.984, 1.984, 1.984) [0.5, 0.5, 0.5], PeriodicSite: Tl (0.0, 0.0, 0.0) [0.0, 0.0, 0.0], PeriodicSite: O (1.984, 1.984, 0.0) [0.5, 0.5, 0.0], PeriodicSite: O (1.984, 0.0, 1.984) [0.5, 0.0, 0.5], PeriodicSite: O (0.0, 1.984, 1.984) [0.0, 0.5, 0.5]]",62.506207052787076,"[Element Mg, Element Tl, Element O, Element O, Element O]",False,True,-1.204544767916667,0.5694374876249997,0.0
182,mp,mp-1219105.cif,Sm1 Al3 Cu1,SmAl3Cu,I4mm,6.06681949043275,6.06681949043275,6.06681949043275,139.74439001764753,139.74439001764753,58.24161221922188,"(True, True, True)","[PeriodicSite: Sm (0.0, 0.0, 10.53) [0.9932, 0.9932, -0.0], PeriodicSite: Al (0.0, 2.088, 2.562) [0.7417, 0.2417, 0.5], PeriodicSite: Al (2.088, 0.0, 2.562) [0.2417, 0.7417, 0.5], PeriodicSite: Al (0.0, 0.0, 4.245) [0.4005, 0.4005, 0.0], PeriodicSite: Cu (0.0, 0.0, 6.604) [0.623, 0.623, 0.0]]",92.39783841298033,"[Element Sm, Element Al, Element Al, Element Al, Element Cu]",True,False,-0.46561602499999993,0.0,0.0
183,mp,mp-1040467.cif,Rb1 Os1 O3,RbOsO3,Pm-3m,3.974097,3.974097,3.974097,90.0,90.0,90.0,"(True, True, True)","[PeriodicSite: Rb (0.0, 0.0, 0.0) [0.0, 0.0, 0.0], PeriodicSite: Os (1.987, 1.987, 1.987) [0.5, 0.5, 0.5], PeriodicSite: O (0.0, 1.987, 1.987) [0.0, 0.5, 0.5], PeriodicSite: O (1.987, 0.0, 1.987) [0.5, 0.0, 0.5], PeriodicSite: O (1.987, 1.987, 0.0) [0.5, 0.5, 0.0]]",62.76469020489101,"[Element Rb, Element Os, Element O, Element O, Element O]",False,False,-1.5210085587500004,0.0905591689999996,0.0
184,mp,mp-1207122.cif,Ce1 Si3 Pt1,CeSi3Pt,I4mm,5.700786497787174,5.700786497787174,5.700786497787174,135.50223120769687,135.50223120769687,64.75083956404303,"(True, True, True)","[PeriodicSite: Ce (0.0, 0.0, 5.782) [0.6005, 0.6005, 0.0], PeriodicSite: Si (0.0, 2.158, 3.508) [0.8643, 0.3643, 0.5], PeriodicSite: Si (2.158, 0.0, 3.508) [0.3643, 0.8643, 0.5], PeriodicSite: Si (0.0, 0.0, 9.632) [1.0, 1.0, 0.0], PeriodicSite: Pt (0.0, 0.0, 2.415) [0.2508, 0.2508, 0.0]]",89.72739665110615,"[Element Ce, Element Si, Element Si, Element Si, Element Pt]",True,True,-0.7986399349999992,0.0,0.0
185,mp,mp-1187260.cif,Ta1 In1 O3,TaInO3,Pm-3m,4.067159,4.067159,4.067159,90.0,90.0,90.0,"(True, True, True)","[PeriodicSite: Ta (2.034, 2.034, 2.034) [0.5, 0.5, 0.5], PeriodicSite: In (0.0, 0.0, 0.0) [0.0, 0.0, 0.0], PeriodicSite: O (2.034, 2.034, 0.0) [0.5, 0.5, 0.0], PeriodicSite: O (2.034, 0.0, 2.034) [0.5, 0.0, 0.5], PeriodicSite: O (0.0, 2.034, 2.034) [0.0, 0.5, 0.5]]",67.27805888471052,"[Element Ta, Element In, Element O, Element O, Element O]",False,False,-2.510975249250001,0.17112795433335215,0.0
186,mp,mp-1120765.cif,Ba1 Ni1 O3,BaNiO3,Pm-3m,4.030684,4.030684,4.030684,90.0,90.0,90.0,"(True, True, True)","[PeriodicSite: Ba (0.0, 0.0, 0.0) [0.0, 0.0, 0.0], PeriodicSite: Ni (2.015, 2.015, 2.015) [0.5, 0.5, 0.5], PeriodicSite: O (0.0, 2.015, 2.015) [0.0, 0.5, 0.5], PeriodicSite: O (2.015, 0.0, 2.015) [0.5, 0.0, 0.5], PeriodicSite: O (2.015, 2.015, 0.0) [0.5, 0.5, 0.0]]",65.48415898349904,"[Element Ba, Element Ni, Element O, Element O, Element O]",False,True,-1.6965135752500005,0.12419137700000249,0.0
187,mp,mp-1076070.cif,La1 Cu1 O3,LaCuO3,Pm-3m,3.871669,3.871669,3.871669,90.0,90.0,90.0,"(True, True, True)","[PeriodicSite: La (1.936, 1.936, 1.936) [0.5, 0.5, 0.5], PeriodicSite: Cu (0.0, 0.0, 0.0) [0.0, 0.0, 0.0], PeriodicSite: O (1.936, 0.0, 0.0) [0.5, 0.0, 0.0], PeriodicSite: O (0.0, 1.936, 0.0) [0.0, 0.5, 0.0], PeriodicSite: O (0.0, 0.0, 1.936) [0.0, 0.0, 0.5]]",58.03562468331231,"[Element La, Element Cu, Element O, Element O, Element O]",False,False,-2.4003980822500006,0.02422109399999961,0.0