,provider,id,Full_Formula,formula,space_group,a_lattice_param,b_lattice_param,c_lattice_param,aplha_degree,beta_degree,gamma_degree,pbc,sits,volume,species_at_sites,is_stable,is_magnetic,formation_energy,energy_above_hull,band_gap
1189,mp,mp-998322.cif,Cs1 In1 F3,CsInF3,Pm-3m,4.674301,4.674301,4.674301,90.0,90.0,90.0,"(True, True, True)","[PeriodicSite: Cs (2.337, 2.337, 2.337) [0.5, 0.5, 0.5], PeriodicSite: In (0.0, 0.0, 0.0) [0.0, 0.0, 0.0], PeriodicSite: F (2.337, 0.0, 0.0) [0.5, 0.0, 0.0], PeriodicSite: F (0.0, 2.337, 0.0) [0.0, 0.5, 0.0], PeriodicSite: F (0.0, 0.0, 2.337) [0.0, 0.0, 0.5]]",102.12922248166248,"[Element Cs, Element In, Element F, Element F, Element F]",False,False,-2.652293533086207,0.10640864399999916,0.0
1190,mp,mp-971975.cif,Sr1 Hg1 O3,SrHgO3,Pm-3m,4.236171,4.236171,4.236171,90.0,90.0,90.0,"(True, True, True)","[PeriodicSite: Sr (0.0, 0.0, 0.0) [0.0, 0.0, 0.0], PeriodicSite: Hg (2.118, 2.118, 2.118) [0.5, 0.5, 0.5], PeriodicSite: O (2.118, 2.118, 0.0) [0.5, 0.5, 0.0], PeriodicSite: O (2.118, 0.0, 2.118) [0.5, 0.0, 0.5], PeriodicSite: O (0.0, 2.118, 2.118) [0.0, 0.5, 0.5]]",76.01870174364761,"[Element Sr, Element Hg, Element O, Element O, Element O]",False,False,-1.3615998715833335,0.2727620682499996,0.0
1191,mp,mp-1383356.cif,Ba1 Hf1 S3,BaHfS3,R3m,5.011663892196383,5.011663892196383,5.011664262799833,89.98687818599394,89.98687818599394,89.98688777031475,"(True, True, True)","[PeriodicSite: Ba (0.06117, 0.0, 0.04324) [0.008628, 0.008628, 0.008628], PeriodicSite: Hf (3.619, 0.0, 2.558) [0.5105, 0.5105, 0.5105], PeriodicSite: S (1.86, 1.778, 2.572) [0.01142, 0.5131, 0.5131], PeriodicSite: S (3.637, 0.0, 0.05722) [0.5131, 0.5131, 0.01142], PeriodicSite: S (1.86, -1.778, 2.572) [0.5131, 0.01142, 0.5131]]",125.8768336086791,"[Element Ba, Element Hf, Element S, Element S, Element S]",False,False,-2.1120838018750008,0.028262704499999458,0.8588999999999998
1192,mp,mp-972367.cif,U1 Al1 O3,UAlO3,Pm-3m,3.766603,3.766603,3.766603,90.0,90.0,90.0,"(True, True, True)","[PeriodicSite: U (0.0, 0.0, 0.0) [0.0, 0.0, 0.0], PeriodicSite: Al (1.883, 1.883, 1.883) [0.5, 0.5, 0.5], PeriodicSite: O (1.883, 1.883, 0.0) [0.5, 0.5, 0.0], PeriodicSite: O (1.883, 0.0, 1.883) [0.5, 0.0, 0.5], PeriodicSite: O (0.0, 1.883, 1.883) [0.0, 0.5, 0.5]]",53.437919809877734,"[Element U, Element Al, Element O, Element O, Element O]",False,True,-3.2373706872499994,0.17377716485061256,0.0
1193,mp,mp-545825.cif,Na1 I1 O3,NaIO3,Cmmm,4.535083843646112,4.535083843646112,5.992743,90.0,90.0,128.2781516151712,"(True, True, True)","[PeriodicSite: Na (0.0, 0.0, 0.0) [0.0, 0.0, 0.0], PeriodicSite: I (1.978, 0.0, 2.996) [0.5, 0.5, 0.5], PeriodicSite: O (0.0, 0.0, 2.996) [0.0, 0.0, 0.5], PeriodicSite: O (0.9891, -2.04, 0.0) [0.5, 0.0, 0.0], PeriodicSite: O (0.9891, 2.04, 0.0) [0.0, 0.5, 0.0]]",96.75489601607242,"[Element Na, Element I, Element O, Element O, Element O]",False,False,-0.3026623145603452,1.0306532910000001,0.0
1194,mp,mp-972021.cif,Sr1 In1 O3,SrInO3,Pm-3m,4.214427,4.214427,4.214427,90.0,90.0,90.0,"(True, True, True)","[PeriodicSite: Sr (0.0, 0.0, 0.0) [0.0, 0.0, 0.0], PeriodicSite: In (2.107, 2.107, 2.107) [0.5, 0.5, 0.5], PeriodicSite: O (2.107, 2.107, 0.0) [0.5, 0.5, 0.0], PeriodicSite: O (2.107, 0.0, 2.107) [0.5, 0.0, 0.5], PeriodicSite: O (0.0, 2.107, 2.107) [0.0, 0.5, 0.5]]",74.85410238575706,"[Element Sr, Element In, Element O, Element O, Element O]",False,True,-2.1183083625833334,0.1941839004999979,0.0
1195,mp,mp-998173.cif,Rb1 Pd1 Cl3,RbPdCl3,Pm-3m,5.006532,5.006532,5.006532,90.0,90.0,90.0,"(True, True, True)","[PeriodicSite: Rb (0.0, 0.0, 0.0) [0.0, 0.0, 0.0], PeriodicSite: Pd (2.503, 2.503, 2.503) [0.5, 0.5, 0.5], PeriodicSite: Cl (0.0, 2.503, 2.503) [0.0, 0.5, 0.5], PeriodicSite: Cl (2.503, 0.0, 2.503) [0.5, 0.0, 0.5], PeriodicSite: Cl (2.503, 2.503, 0.0) [0.5, 0.5, 0.0]]",125.490540284061,"[Element Rb, Element Pd, Element Cl, Element Cl, Element Cl]",False,False,-1.4371652574999996,0.04330549450000021,0.0
1196,mp,mp-19778.cif,Nd3 Pb1 N1,Nd3PbN,Pm-3m,5.898391,5.898391,5.898391,90.0,90.0,90.0,"(True, True, True)","[PeriodicSite: Nd (2.949, 0.0, 2.949) [0.5, 0.0, 0.5], PeriodicSite: Nd (0.0, 2.949, 2.949) [0.0, 0.5, 0.5], PeriodicSite: Nd (2.949, 2.949, 0.0) [0.5, 0.5, 0.0], PeriodicSite: Pb (2.949, 2.949, 2.949) [0.5, 0.5, 0.5], PeriodicSite: N (0.0, 0.0, 0.0) [0.0, 0.0, 0.0]]",205.21101794902822,"[Element Nd, Element Nd, Element Nd, Element Pb, Element N]",False,False,1.2680974604999995,2.2074732060000004,0.0
1197,mp,mp-861873.cif,Ta1 Tl1 O3,TaTlO3,Pm-3m,4.082848,4.082848,4.082848,90.0,90.0,90.0,"(True, True, True)","[PeriodicSite: Ta (2.041, 2.041, 2.041) [0.5, 0.5, 0.5], PeriodicSite: Tl (0.0, 0.0, 0.0) [0.0, 0.0, 0.0], PeriodicSite: O (2.041, 2.041, 0.0) [0.5, 0.5, 0.0], PeriodicSite: O (2.041, 0.0, 2.041) [0.5, 0.0, 0.5], PeriodicSite: O (0.0, 2.041, 2.041) [0.0, 0.5, 0.5]]",68.05963814461339,"[Element Ta, Element Tl, Element O, Element O, Element O]",False,False,-2.5810819319166667,0.10736485474997082,0.6811000000000007
1198,mp,mp-19035.cif,Ba1 Fe1 O3,BaFeO3,Pm-3m,3.95157012,3.95156495,3.95156495,90.0,90.0,90.0,"(True, True, True)","[PeriodicSite: Ba (0.0, 0.0, 0.0) [0.0, -0.0, -0.0], PeriodicSite: Fe (1.976, 1.976, 1.976) [0.5, 0.5, 0.5], PeriodicSite: O (0.0, 1.976, 1.976) [-0.0, 0.5, 0.5], PeriodicSite: O (1.976, 0.0, 1.976) [0.5, 0.0, 0.5], PeriodicSite: O (1.976, 1.976, 0.0) [0.5, 0.5, 0.0]]",61.70323615127433,"[Element Ba, Element Fe, Element O, Element O, Element O]",False,True,-2.14418027325,0.006864233333332415,0.0
1199,mp,mp-989515.cif,La1 Mo1 N3,LaMoN3,P4mm,3.898316,3.898316,4.65975,90.0,90.0,90.0,"(True, True, True)","[PeriodicSite: La (1.949, 1.949, 1.691) [0.5, 0.5, 0.3629], PeriodicSite: Mo (0.0, 0.0, 3.756) [0.0, 0.0, 0.806], PeriodicSite: N (0.0, 1.949, 3.212) [0.0, 0.5, 0.6894], PeriodicSite: N (0.0, 0.0, 0.8791) [0.0, 0.0, 0.1887], PeriodicSite: N (1.949, 0.0, 3.212) [0.5, 0.0, 0.6894]]",70.81360396618,"[Element La, Element Mo, Element N, Element N, Element N]",False,False,-1.0729523319999998,0.041644897999999486,0.0
1200,mp,mp-8557.cif,Ba1 Pa1 O3,BaPaO3,Pm-3m,4.49381653,4.49385515,4.49383447,90.0,90.0,90.0,"(True, True, True)","[PeriodicSite: Ba (2.247, 2.247, 2.247) [0.5, 0.5, 0.5], PeriodicSite: Pa (0.0, 0.0, 0.0) [-0.0, 0.0, 0.0], PeriodicSite: O (0.0, 2.247, 0.0) [0.0, 0.5, 0.0], PeriodicSite: O (0.0, 0.0, 2.247) [0.0, 0.0, 0.5], PeriodicSite: O (2.247, 0.0, 0.0) [0.5, -0.0, -0.0]]",90.75101233528245,"[Element Ba, Element Pa, Element O, Element O, Element O]",True,True,-3.57064297525,0.0,0.0
1201,mp,mp-977370.cif,Eu1 Os1 O3,EuOsO3,Pm-3m,3.988748,3.988748,3.988748,90.0,90.0,90.0,"(True, True, True)","[PeriodicSite: Eu (1.994, 1.994, 1.994) [0.5, 0.5, 0.5], PeriodicSite: Os (0.0, 0.0, 0.0) [0.0, 0.0, 0.0], PeriodicSite: O (0.0, 0.0, 1.994) [0.0, 0.0, 0.5], PeriodicSite: O (0.0, 1.994, 0.0) [0.0, 0.5, 0.0], PeriodicSite: O (1.994, 0.0, 0.0) [0.5, 0.0, 0.0]]",63.46142186546037,"[Element Eu, Element Os, Element O, Element O, Element O]",False,True,-2.04683610525,0.2299812626666604,0.0
1202,mp,mp-975190.cif,Rb1 Te1 O3,RbTeO3,Pm-3m,4.172344,4.172344,4.172344,90.0,90.0,90.0,"(True, True, True)","[PeriodicSite: Rb (0.0, 0.0, 0.0) [0.0, 0.0, 0.0], PeriodicSite: Te (2.086, 2.086, 2.086) [0.5, 0.5, 0.5], PeriodicSite: O (2.086, 2.086, 0.0) [0.5, 0.5, 0.0], PeriodicSite: O (2.086, 0.0, 2.086) [0.5, 0.0, 0.5], PeriodicSite: O (0.0, 2.086, 2.086) [0.0, 0.5, 0.5]]",72.63406049182207,"[Element Rb, Element Te, Element O, Element O, Element O]",False,False,-1.573637470083333,0.1425068136666532,0.0
1203,mp,mp-753781.cif,Eu1 Hf1 O3,EuHfO3,Pm-3m,4.097683320105714,4.09766316020076,4.097713690226168,89.99898543387128,89.99935177682478,90.00050728279197,"(True, True, True)","[PeriodicSite: Eu (4.098, 4.098, 6.766e-05) [1.0, 1.0, 2e-06], PeriodicSite: Hf (2.049, 2.049, 2.049) [0.5, 0.5, 0.5], PeriodicSite: O (4.098, 2.049, 2.049) [1.0, 0.5, 0.5], PeriodicSite: O (2.049, 9.07e-06, 2.049) [0.5, 0.0, 0.5], PeriodicSite: O (2.049, 2.049, 2.973e-05) [0.5, 0.5, -0.0]]",68.80440725408809,"[Element Eu, Element Hf, Element O, Element O, Element O]",True,True,-3.72665152525,0.0,0.4795999999999996
1204,mp,mp-31149.cif,Ca3 Bi1 N1,Ca3BiN,Pm-3m,4.90035347,4.90035347,4.90035347,90.0,90.0,90.0,"(True, True, True)","[PeriodicSite: Ca (2.45, 0.0, 2.45) [0.5, 0.0, 0.5], PeriodicSite: Ca (0.0, 2.45, 2.45) [0.0, 0.5, 0.5], PeriodicSite: Ca (2.45, 2.45, 0.0) [0.5, 0.5, 0.0], PeriodicSite: Bi (0.0, 0.0, 0.0) [0.0, 0.0, 0.0], PeriodicSite: N (2.45, 2.45, 2.45) [0.5, 0.5, 0.5]]",117.67446228077745,"[Element Ca, Element Ca, Element Ca, Element Bi, Element N]",True,False,-1.095965235,0.0,0.36870000000000047
1205,mp,mp-655631.cif,Fe1 Bi1 O3,FeBiO3,R3,5.427758962452644,5.427758962452644,5.42775796755981,66.29821601399705,66.29821601399705,66.2982188886984,"(True, True, True)","[PeriodicSite: Fe (3.21, 0.0, 1.307) [0.2745, 0.2745, 0.2745], PeriodicSite: Bi (0.2311, 0.0, 0.09411) [0.01977, 0.01977, 0.01977], PeriodicSite: O (2.552, -0.6152, 2.882) [0.2109, 0.003646, 0.6052], PeriodicSite: O (3.316, 1.785, 1.004) [0.003646, 0.6052, 0.2109], PeriodicSite: O (3.718, -1.17, 0.01736) [0.6052, 0.2109, 0.003646]]",128.43770899214786,"[Element Fe, Element Bi, Element O, Element O, Element O]",False,True,-1.2448044512500005,0.440277244999999,1.7818999999999998
1206,mp,mp-552729.cif,K1 I1 O3,KIO3,R3m,4.438137532787714,4.438136280002313,4.4388681801228245,88.6674301475757,88.66744489795137,88.66447294151719,"(True, True, True)","[PeriodicSite: K (0.03784, 0.03733, 0.03797) [0.008336, 0.008336, 0.008247], PeriodicSite: I (2.301, 2.27, 2.333) [0.5068, 0.5068, 0.5069], PeriodicSite: O (2.466, 2.433, 0.5289) [0.5454, 0.5454, 0.09899], PeriodicSite: O (0.4947, 2.433, 2.474) [0.09895, 0.5454, 0.5454], PeriodicSite: O (2.44, 0.4618, 2.474) [0.5454, 0.09895, 0.5454]]",87.36269032913107,"[Element K, Element I, Element O, Element O, Element O]",False,False,-1.37634180585,0.004408874250001915,2.5681999999999996
1207,mp,mp-4230.cif,Sc3 Tl1 C1,Sc3TlC,Pm-3m,4.54420828,4.54420828,4.54420828,90.0,90.0,90.0,"(True, True, True)","[PeriodicSite: Sc (0.0, 2.272, 2.272) [-0.0, 0.5, 0.5], PeriodicSite: Sc (2.272, 2.272, 0.0) [0.5, 0.5, -0.0], PeriodicSite: Sc (2.272, 0.0, 2.272) [0.5, -0.0, 0.5], PeriodicSite: Tl (0.0, 0.0, 0.0) [-0.0, 0.0, -0.0], PeriodicSite: C (2.272, 2.272, 2.272) [0.5, 0.5, 0.5]]",93.83712343170306,"[Element Sc, Element Sc, Element Sc, Element Tl, Element C]",True,False,-0.6216347291666665,0.0,0.0
1208,mp,mp-971996.cif,Sr1 Ho1 O3,SrHoO3,Pm-3m,4.355383,4.355383,4.355383,90.0,90.0,90.0,"(True, True, True)","[PeriodicSite: Sr (0.0, 0.0, 0.0) [0.0, 0.0, 0.0], PeriodicSite: Ho (2.178, 2.178, 2.178) [0.5, 0.5, 0.5], PeriodicSite: O (2.178, 2.178, 0.0) [0.5, 0.5, 0.0], PeriodicSite: O (2.178, 0.0, 2.178) [0.5, 0.0, 0.5], PeriodicSite: O (0.0, 2.178, 2.178) [0.0, 0.5, 0.5]]",82.61883275427296,"[Element Sr, Element Ho, Element O, Element O, Element O]",False,True,-3.058429996583333,0.23622259387500044,0.0
1209,mp,mp-998417.cif,Cs1 Sr1 I3,CsSrI3,Cm,6.472272848499667,6.472272848499667,6.464808662825838,89.90800579007481,89.90800579007481,89.98905811247545,"(True, True, True)","[PeriodicSite: Cs (0.0, 0.03076, 6.462) [0.001758, 0.001758, 0.9996], PeriodicSite: Sr (0.0, 4.637, 3.347) [0.5057, 0.5057, 0.5177], PeriodicSite: I (-2.273, 2.303, 3.32) [0.002374, 0.4991, 0.5135], PeriodicSite: I (0.0, 4.465, 0.1085) [0.4878, 0.4878, 0.01678], PeriodicSite: I (2.273, 2.303, 3.32) [0.4991, 0.002374, 0.5135]]",270.812173687388,"[Element Cs, Element Sr, Element I, Element I, Element I]",False,False,-1.8927443489195397,0.031693017999999906,3.6132
1210,mp,mp-1400626.cif,Tl1 Ag1 F3,TlAgF3,Cm,4.427712744436454,4.427712744436454,4.429410419089655,89.53279776682521,89.53279776682521,89.58829728084807,"(True, True, True)","[PeriodicSite: Tl (0.0, 6.305, 4.406) [0.9953, 0.9953, 0.9949], PeriodicSite: Ag (0.0, 3.151, 2.156) [0.4974, 0.4974, 0.4867], PeriodicSite: F (-1.568, 4.715, 2.144) [0.4951, 0.9976, 0.4842], PeriodicSite: F (0.0, 3.214, 4.369) [0.5035, 0.5035, 0.9864], PeriodicSite: F (1.568, 4.715, 2.144) [0.9976, 0.4951, 0.4842]]",86.82902291658905,"[Element Tl, Element Ag, Element F, Element F, Element F]",False,False,-1.7121814794999999,0.014893152999996495,0.0
1211,mp,mp-22556.cif,Tm3 Tl1 C1,Tm3TlC,Pm-3m,5.532385,5.532385,5.532385,90.0,90.0,90.0,"(True, True, True)","[PeriodicSite: Tm (0.0, 2.766, 2.766) [0.0, 0.5, 0.5], PeriodicSite: Tm (2.766, 2.766, 0.0) [0.5, 0.5, 0.0], PeriodicSite: Tm (2.766, 0.0, 2.766) [0.5, 0.0, 0.5], PeriodicSite: Tl (2.766, 2.766, 2.766) [0.5, 0.5, 0.5], PeriodicSite: C (0.0, 0.0, 0.0) [0.0, 0.0, 0.0]]",169.33127772071913,"[Element Tm, Element Tm, Element Tm, Element Tl, Element C]",False,False,1.6366443798333337,1.9535037521999992,0.0
1212,mp,mp-975159.cif,Rb1 Zn1 O3,RbZnO3,Pm-3m,4.164075,4.164075,4.164075,90.0,90.0,90.0,"(True, True, True)","[PeriodicSite: Rb (2.082, 2.082, 2.082) [0.5, 0.5, 0.5], PeriodicSite: Zn (0.0, 0.0, 0.0) [0.0, 0.0, 0.0], PeriodicSite: O (0.0, 0.0, 2.082) [0.0, 0.0, 0.5], PeriodicSite: O (0.0, 2.082, 0.0) [0.0, 0.5, 0.0], PeriodicSite: O (2.082, 0.0, 0.0) [0.5, 0.0, 0.0]]",72.20306426586795,"[Element Rb, Element Zn, Element O, Element O, Element O]",False,True,-0.8817925747499998,0.41868662400000023,0.0
1213,mp,mp-972442.cif,Sn1 B1 O3,SnBO3,Pm-3m,3.492841,3.492841,3.492841,90.0,90.0,90.0,"(True, True, True)","[PeriodicSite: Sn (0.0, 0.0, 0.0) [0.0, 0.0, 0.0], PeriodicSite: B (1.746, 1.746, 1.746) [0.5, 0.5, 0.5], PeriodicSite: O (1.746, 1.746, 0.0) [0.5, 0.5, 0.0], PeriodicSite: O (1.746, 0.0, 1.746) [0.5, 0.0, 0.5], PeriodicSite: O (0.0, 1.746, 1.746) [0.0, 0.5, 0.5]]",42.61244452154257,"[Element Sn, Element B, Element O, Element O, Element O]",False,False,-1.2365572260833333,1.1284979960624844,0.0
1214,mp,mp-866816.cif,Ca1 Sn1 S3,CaSnS3,Pm-3m,5.011115,5.011115,5.011115,90.0,90.0,90.0,"(True, True, True)","[PeriodicSite: Ca (2.506, 2.506, 2.506) [0.5, 0.5, 0.5], PeriodicSite: Sn (0.0, 0.0, 0.0) [0.0, 0.0, 0.0], PeriodicSite: S (0.0, 0.0, 2.506) [0.0, 0.0, 0.5], PeriodicSite: S (0.0, 2.506, 0.0) [0.0, 0.5, 0.0], PeriodicSite: S (2.506, 0.0, 0.0) [0.5, 0.0, 0.0]]",125.83547952155797,"[Element Ca, Element Sn, Element S, Element S, Element S]",False,False,-0.9079607428750002,0.48026473124999836,0.0
1215,mp,mp-22981.cif,Tl1 I1 O3,TlIO3,R3m,4.5042186482558,4.504218742373265,4.504218410273846,88.7770587720396,88.77706450994337,88.77707259576104,"(True, True, True)","[PeriodicSite: Tl (4.558, 4.495, 4.623) [0.9912, 0.9912, 0.9912], PeriodicSite: I (2.291, 2.259, 2.323) [0.4981, 0.4981, 0.4981], PeriodicSite: O (2.44, 0.4527, 2.474) [0.5381, 0.09671, 0.5381], PeriodicSite: O (0.4866, 2.433, 2.474) [0.09671, 0.5381, 0.5381], PeriodicSite: O (2.467, 2.433, 0.5215) [0.5381, 0.5381, 0.09671]]",91.31995051891965,"[Element Tl, Element I, Element O, Element O, Element O]",True,False,-0.9815477579166668,0.0,2.7632999999999996
1216,mp,mp-21128.cif,Ca3 Pb1 N1,Ca3PbN,Pm-3m,5.953987,5.953987,5.953987,90.0,90.0,90.0,"(True, True, True)","[PeriodicSite: Ca (2.977, 2.977, 0.0) [0.5, 0.5, 0.0], PeriodicSite: Ca (2.977, 0.0, 2.977) [0.5, 0.0, 0.5], PeriodicSite: Ca (0.0, 2.977, 2.977) [0.0, 0.5, 0.5], PeriodicSite: Pb (2.977, 2.977, 2.977) [0.5, 0.5, 0.5], PeriodicSite: N (0.0, 0.0, 0.0) [0.0, 0.0, 0.0]]",211.06860811249467,"[Element Ca, Element Ca, Element Ca, Element Pb, Element N]",False,True,0.7485016170000002,1.4846569977500002,0.0
1217,mp,mp-21888.cif,Tm3 Sn1 C1,Tm3SnC,Pm-3m,5.523951,5.523951,5.523951,90.0,90.0,90.0,"(True, True, True)","[PeriodicSite: Tm (0.0, 2.762, 2.762) [0.0, 0.5, 0.5], PeriodicSite: Tm (2.762, 0.0, 2.762) [0.5, 0.0, 0.5], PeriodicSite: Tm (2.762, 2.762, 0.0) [0.5, 0.5, 0.0], PeriodicSite: Sn (2.762, 2.762, 2.762) [0.5, 0.5, 0.5], PeriodicSite: C (0.0, 0.0, 0.0) [0.0, 0.0, 0.0]]",168.5580322211173,"[Element Tm, Element Tm, Element Tm, Element Sn, Element C]",False,False,1.5066567995000006,2.0414656258666666,0.0
1218,mp,mp-8368.cif,Pr3 Ga1 C1,Pr3GaC,Pm-3m,5.537393,5.537393,5.537393,90.0,90.0,90.0,"(True, True, True)","[PeriodicSite: Pr (0.0, 2.769, 2.769) [0.0, 0.5, 0.5], PeriodicSite: Pr (2.769, 0.0, 2.769) [0.5, 0.0, 0.5], PeriodicSite: Pr (2.769, 2.769, 0.0) [0.5, 0.5, 0.0], PeriodicSite: Ga (2.769, 2.769, 2.769) [0.5, 0.5, 0.5], PeriodicSite: C (0.0, 0.0, 0.0) [0.0, 0.0, 0.0]]",169.79153793566402,"[Element Pr, Element Pr, Element Pr, Element Ga, Element C]",False,False,1.2168788640000003,1.497635500416667,0.0
1219,mp,mp-989602.cif,La1 Re1 N3,LaReN3,Pm-3m,3.95489279,3.95489279,3.95489279,90.0,90.0,90.0,"(True, True, True)","[PeriodicSite: La (0.0, 0.0, 0.0) [0.0, 0.0, 0.0], PeriodicSite: Re (1.977, 1.977, 1.977) [0.5, 0.5, 0.5], PeriodicSite: N (0.0, 1.977, 1.977) [0.0, 0.5, 0.5], PeriodicSite: N (1.977, 0.0, 1.977) [0.5, -0.0, 0.5], PeriodicSite: N (1.977, 1.977, 0.0) [0.5, 0.5, 0.0]]",61.85917806687415,"[Element La, Element Re, Element N, Element N, Element N]",False,False,-0.9514500689999992,0.00764234499999894,0.0
1220,mp,mp-975138.cif,Rb1 W1 O3,RbWO3,Pm-3m,4.058288,4.058288,4.058288,90.0,90.0,90.0,"(True, True, True)","[PeriodicSite: Rb (2.029, 2.029, 2.029) [0.5, 0.5, 0.5], PeriodicSite: W (0.0, 0.0, 0.0) [0.0, 0.0, 0.0], PeriodicSite: O (2.029, 0.0, 0.0) [0.5, 0.0, 0.0], PeriodicSite: O (0.0, 2.029, 0.0) [0.0, 0.5, 0.0], PeriodicSite: O (0.0, 0.0, 2.029) [0.0, 0.0, 0.5]]",66.83879192428014,"[Element Rb, Element W, Element O, Element O, Element O]",False,True,-2.0417092207500005,0.1532382055000001,0.0
1221,mp,mp-982975.cif,Li1 Be1 O3,LiBeO3,Pm-3m,3.507241,3.507241,3.507241,90.0,90.0,90.0,"(True, True, True)","[PeriodicSite: Li (0.0, 0.0, 0.0) [0.0, 0.0, 0.0], PeriodicSite: Be (1.754, 1.754, 1.754) [0.5, 0.5, 0.5], PeriodicSite: O (1.754, 1.754, 0.0) [0.5, 0.5, 0.0], PeriodicSite: O (1.754, 0.0, 1.754) [0.5, 0.0, 0.5], PeriodicSite: O (0.0, 1.754, 1.754) [0.0, 0.5, 0.5]]",43.1416576665112,"[Element Li, Element Be, Element O, Element O, Element O]",False,True,-1.3473726269166668,0.5701234884285729,0.0
1222,mp,mp-7752.cif,Sr3 Sb1 N1,Sr3SbN,Pm-3m,5.19496514,5.19496514,5.19496514,90.0,90.0,90.0,"(True, True, True)","[PeriodicSite: Sr (0.0, 2.597, 2.597) [-0.0, 0.5, 0.5], PeriodicSite: Sr (2.597, 2.597, 0.0) [0.5, 0.5, -0.0], PeriodicSite: Sr (2.597, 0.0, 2.597) [0.5, -0.0, 0.5], PeriodicSite: Sb (0.0, 0.0, 0.0) [0.0, 0.0, 0.0], PeriodicSite: N (2.597, 2.597, 2.597) [0.5, 0.5, 0.5]]",140.19996748628466,"[Element Sr, Element Sr, Element Sr, Element Sb, Element N]",True,False,-1.0300624230000004,0.0,0.2576999999999998
1223,mp,mp-1475723.cif,Ti1 Al1 O3,TiAlO3,Pm-3m,3.860804,3.860804,3.860804,90.0,90.0,90.0,"(True, True, True)","[PeriodicSite: Ti (0.0, 0.0, 0.0) [0.0, 0.0, 0.0], PeriodicSite: Al (1.93, 1.93, 1.93) [0.5, 0.5, 0.5], PeriodicSite: O (0.0, 0.0, 1.93) [0.0, 0.0, 0.5], PeriodicSite: O (0.0, 1.93, 0.0) [0.0, 0.5, 0.0], PeriodicSite: O (1.93, 0.0, 0.0) [0.5, 0.0, 0.0]]",57.548401321217,"[Element Ti, Element Al, Element O, Element O, Element O]",False,False,-2.369842129916667,0.9959165675000055,0.0
1224,mp,mp-20922.cif,Dy3 Ga1 C1,Dy3GaC,Pm-3m,5.300761,5.300761,5.300761,90.0,90.0,90.0,"(True, True, True)","[PeriodicSite: Dy (2.65, 0.0, 2.65) [0.5, 0.0, 0.5], PeriodicSite: Dy (2.65, 2.65, 0.0) [0.5, 0.5, 0.0], PeriodicSite: Dy (0.0, 2.65, 2.65) [0.0, 0.5, 0.5], PeriodicSite: Ga (2.65, 2.65, 2.65) [0.5, 0.5, 0.5], PeriodicSite: C (0.0, 0.0, 0.0) [0.0, 0.0, 0.0]]",148.94113867846457,"[Element Dy, Element Dy, Element Dy, Element Ga, Element C]",False,False,1.1887465369999994,1.6067146889999977,0.0
1225,mp,mp-976446.cif,Mg1 Mn1 O3,MgMnO3,Pm-3m,3.73567,3.73567,3.73567,90.0,90.0,90.0,"(True, True, True)","[PeriodicSite: Mg (0.0, 0.0, 0.0) [0.0, 0.0, 0.0], PeriodicSite: Mn (1.868, 1.868, 1.868) [0.5, 0.5, 0.5], PeriodicSite: O (1.868, 1.868, 0.0) [0.5, 0.5, 0.0], PeriodicSite: O (1.868, 0.0, 1.868) [0.5, 0.0, 0.5], PeriodicSite: O (0.0, 1.868, 1.868) [0.0, 0.5, 0.5]]",52.132135357475256,"[Element Mg, Element Mn, Element O, Element O, Element O]",False,True,-1.8823315628362067,0.49021219800000004,0.0