,provider,id,Full_Formula,formula,space_group,a_lattice_param,b_lattice_param,c_lattice_param,aplha_degree,beta_degree,gamma_degree,pbc,sits,volume,species_at_sites,is_stable,is_magnetic,formation_energy,energy_above_hull,band_gap
1117,mp,mp-20164.cif,Mn3 Ga1 C1,Mn3GaC,Pm-3m,4.62267,4.62267,4.62267,90.0,90.0,90.0,"(True, True, True)","[PeriodicSite: Mn (0.0, 2.311, 2.311) [0.0, 0.5, 0.5], PeriodicSite: Mn (2.311, 2.311, 0.0) [0.5, 0.5, 0.0], PeriodicSite: Mn (2.311, 0.0, 2.311) [0.5, 0.0, 0.5], PeriodicSite: Ga (2.311, 2.311, 2.311) [0.5, 0.5, 0.5], PeriodicSite: C (0.0, 0.0, 0.0) [0.0, 0.0, 0.0]]",98.78219546958817,"[Element Mn, Element Mn, Element Mn, Element Ga, Element C]",False,True,1.9169623482413791,2.0370932790000005,0.0
1118,mp,mp-1418929.cif,Y1 Ag1 O3,YAgO3,Pm-3m,4.05442,4.05442,4.05442,90.0,90.0,90.0,"(True, True, True)","[PeriodicSite: Y (0.0, 0.0, 0.0) [0.0, 0.0, 0.0], PeriodicSite: Ag (2.027, 2.027, 2.027) [0.5, 0.5, 0.5], PeriodicSite: O (2.027, 2.027, 0.0) [0.5, 0.5, 0.0], PeriodicSite: O (2.027, 0.0, 2.027) [0.5, 0.0, 0.5], PeriodicSite: O (0.0, 2.027, 2.027) [0.0, 0.5, 0.5]]",66.64785960361091,"[Element Y, Element Ag, Element O, Element O, Element O]",False,False,-1.5921137059166681,0.583485180916667,0.0
1119,mp,mp-559946.cif,K1 Co1 F3,KCoF3,Pm-3m,4.105255,4.105255,4.105255,90.0,90.0,90.0,"(True, True, True)","[PeriodicSite: K (0.0, 0.0, 0.0) [0.0, 0.0, 0.0], PeriodicSite: Co (2.053, 2.053, 2.053) [0.5, 0.5, 0.5], PeriodicSite: F (2.053, 2.053, 0.0) [0.5, 0.5, 0.0], PeriodicSite: F (2.053, 0.0, 2.053) [0.5, 0.0, 0.5], PeriodicSite: F (0.0, 2.053, 2.053) [0.0, 0.5, 0.5]]",69.18634945992444,"[Element K, Element Co, Element F, Element F, Element F]",False,True,-2.4529325391000008,0.15907860199998503,0.0
1120,mp,mp-20550.cif,Ce3 Pb1 C1,Ce3PbC,Pm-3m,5.986195,5.986195,5.986195,90.0,90.0,90.0,"(True, True, True)","[PeriodicSite: Ce (0.0, 2.993, 2.993) [0.0, 0.5, 0.5], PeriodicSite: Ce (2.993, 2.993, 0.0) [0.5, 0.5, 0.0], PeriodicSite: Ce (2.993, 0.0, 2.993) [0.5, 0.0, 0.5], PeriodicSite: Pb (2.993, 2.993, 2.993) [0.5, 0.5, 0.5], PeriodicSite: C (0.0, 0.0, 0.0) [0.0, 0.0, 0.0]]",214.5124877735204,"[Element Ce, Element Ce, Element Ce, Element Pb, Element C]",False,True,1.7618698974999993,2.0471641226666666,0.0
1121,mp,mp-554973.cif,Tl1 Cu1 F3,TlCuF3,P4/mmm,4.07632852,4.09064598,4.0903874,90.0,90.0,90.0,"(True, True, True)","[PeriodicSite: Tl (2.038, 2.045, 2.045) [0.5, 0.5, 0.5], PeriodicSite: Cu (0.0, 0.0, 0.0) [-0.0, 0.0, -0.0], PeriodicSite: F (2.038, 0.0, 0.0) [0.5, 0.0, -0.0], PeriodicSite: F (0.0, 0.0, 2.045) [0.0, 0.0, 0.5], PeriodicSite: F (0.0, 2.045, 0.0) [0.0, 0.5, 0.0]]",68.20646083666094,"[Element Tl, Element Cu, Element F, Element F, Element F]",False,True,-1.9032640121666664,0.0001839769999998353,0.0
1122,mp,mp-2647102.cif,Pu1 Cu1 O3,PuCuO3,Pm-3m,3.821683,3.823684,3.823684,90.0,90.0,90.0,"(True, True, True)","[PeriodicSite: Pu (1.911, 1.912, 1.912) [0.5, 0.5, 0.5], PeriodicSite: Cu (0.0, 0.0, 0.0) [0.0, 0.0, 0.0], PeriodicSite: O (1.911, 0.0, 0.0) [0.5, 0.0, 0.0], PeriodicSite: O (0.0, 1.912, 0.0) [0.0, 0.5, 0.0], PeriodicSite: O (0.0, 0.0, 1.912) [0.0, 0.0, 0.5]]",55.87514304904544,"[Element Pu, Element Cu, Element O, Element O, Element O]",False,True,-2.095999419249999,0.47174100800000396,0.0
1123,mp,mp-556891.cif,K1 Fe1 F3,KFeF3,Pm-3m,4.16531,4.16531,4.16531,90.0,90.0,90.0,"(True, True, True)","[PeriodicSite: K (0.0, 0.0, 0.0) [0.0, 0.0, 0.0], PeriodicSite: Fe (2.083, 2.083, 2.083) [0.5, 0.5, 0.5], PeriodicSite: F (0.0, 2.083, 2.083) [0.0, 0.5, 0.5], PeriodicSite: F (2.083, 0.0, 2.083) [0.5, 0.0, 0.5], PeriodicSite: F (2.083, 2.083, 0.0) [0.5, 0.5, 0.0]]",72.26732624504928,"[Element K, Element Fe, Element F, Element F, Element F]",False,True,-2.5094717000999998,0.220190678999999,0.0
1124,mp,mp-758371.cif,Yb1 Al1 O3,YbAlO3,Pm-3m,6.3326114832502824,5.176834573686072,5.177613767150123,60.12570364906742,35.31664223370423,35.321927772883726,"(True, True, True)","[PeriodicSite: Yb (2.577, 1.5, 1.064) [0.5, 0.0, 0.0], PeriodicSite: Al (0.0, 0.0, 0.0) [-0.0, 0.0, 0.0], PeriodicSite: O (3.863, 2.248, 3.183) [0.5, -1e-08, 0.5], PeriodicSite: O (3.862, 3.747, 1.067) [0.5, 0.5, 0.0], PeriodicSite: O (5.148, 4.494, 3.187) [0.5, 0.5, 0.5]]",49.0781059712359,"[Element Yb, Element Al, Element O, Element O, Element O]",False,True,-3.203787335250001,0.016349031727272312,0.0
1125,mp,mp-973396.cif,K1 Be1 O3,KBeO3,Pm-3m,3.771574,3.771574,3.771574,90.0,90.0,90.0,"(True, True, True)","[PeriodicSite: K (0.0, 0.0, 0.0) [0.0, 0.0, 0.0], PeriodicSite: Be (1.886, 1.886, 1.886) [0.5, 0.5, 0.5], PeriodicSite: O (1.886, 1.886, 0.0) [0.5, 0.5, 0.0], PeriodicSite: O (1.886, 0.0, 1.886) [0.5, 0.0, 0.5], PeriodicSite: O (0.0, 1.886, 1.886) [0.0, 0.5, 0.5]]",53.64977433795312,"[Element K, Element Be, Element O, Element O, Element O]",False,True,-1.19826386685,0.635952091,0.0
1126,mp,mp-1399298.cif,Ca1 Co1 O3,CaCoO3,Cm,3.176926347789637,3.176926347789637,9.795631958911942,84.06621218188002,84.06621218188002,89.95623289934164,"(True, True, True)","[PeriodicSite: Ca (0.0, 1.784, 2.695) [0.3084, 0.3084, 0.2781], PeriodicSite: Co (0.0, 4.049, 4.975) [0.7372, 0.7372, 0.5134], PeriodicSite: O (0.0, 4.032, 2.936) [0.8005, 0.8005, 0.303], PeriodicSite: O (0.0, 4.031, 6.581) [0.6806, 0.6806, 0.6791], PeriodicSite: O (0.0, 1.767, 4.852) [0.2338, 0.2338, 0.5007]]",97.80442736496283,"[Element Ca, Element Co, Element O, Element O, Element O]",False,True,-1.5641427942499995,0.4831187526666696,0.0
1127,mp,mp-975425.cif,Rb1 As1 O3,RbAsO3,Pm-3m,3.939416,3.939416,3.939416,90.0,90.0,90.0,"(True, True, True)","[PeriodicSite: Rb (0.0, 0.0, 0.0) [0.0, 0.0, 0.0], PeriodicSite: As (1.97, 1.97, 1.97) [0.5, 0.5, 0.5], PeriodicSite: O (1.97, 1.97, 0.0) [0.5, 0.5, 0.0], PeriodicSite: O (1.97, 0.0, 1.97) [0.5, 0.0, 0.5], PeriodicSite: O (0.0, 1.97, 1.97) [0.0, 0.5, 0.5]]",61.135790683882746,"[Element Rb, Element As, Element O, Element O, Element O]",False,False,-1.3612915037500002,0.20542645359999856,0.0
1128,mp,mp-974842.cif,K1 Pt1 O3,KPtO3,Pm-3m,4.046411,4.046411,4.046411,90.0,90.0,90.0,"(True, True, True)","[PeriodicSite: K (2.023, 2.023, 2.023) [0.5, 0.5, 0.5], PeriodicSite: Pt (0.0, 0.0, 0.0) [0.0, 0.0, 0.0], PeriodicSite: O (0.0, 0.0, 2.023) [0.0, 0.0, 0.5], PeriodicSite: O (0.0, 2.023, 0.0) [0.0, 0.5, 0.0], PeriodicSite: O (2.023, 0.0, 0.0) [0.5, 0.0, 0.0]]",66.25367573946053,"[Element K, Element Pt, Element O, Element O, Element O]",False,True,-0.9556497078499995,0.12546218016666444,0.0
1129,mp,mp-973447.cif,K1 Ba1 O3,KBaO3,Pm-3m,5.013731,5.013731,5.013731,90.0,90.0,90.0,"(True, True, True)","[PeriodicSite: K (2.507, 2.507, 2.507) [0.5, 0.5, 0.5], PeriodicSite: Ba (0.0, 0.0, 0.0) [0.0, 0.0, 0.0], PeriodicSite: O (0.0, 0.0, 2.507) [0.0, 0.0, 0.5], PeriodicSite: O (0.0, 2.507, 0.0) [0.0, 0.5, 0.0], PeriodicSite: O (2.507, 0.0, 0.0) [0.5, 0.0, 0.0]]",126.03265569426269,"[Element K, Element Ba, Element O, Element O, Element O]",False,True,-1.2474491638500005,0.5736075070000002,0.0
1130,mp,mp-21854.cif,Nd3 Tl1 C1,Nd3TlC,Pm-3m,5.825617,5.825617,5.825617,90.0,90.0,90.0,"(True, True, True)","[PeriodicSite: Nd (0.0, 2.913, 2.913) [0.0, 0.5, 0.5], PeriodicSite: Nd (2.913, 2.913, 0.0) [0.5, 0.5, 0.0], PeriodicSite: Nd (2.913, 0.0, 2.913) [0.5, 0.0, 0.5], PeriodicSite: Tl (2.913, 2.913, 2.913) [0.5, 0.5, 0.5], PeriodicSite: C (0.0, 0.0, 0.0) [0.0, 0.0, 0.0]]",197.7087028646502,"[Element Nd, Element Nd, Element Nd, Element Tl, Element C]",False,False,1.6052582433333336,1.8307085463333337,0.0
1131,mp,mp-642739.cif,Cs1 Ge1 Br3,CsGeBr3,Cm,5.788630720488655,5.788630720488655,5.728079177413751,88.19674636002576,88.19674636002576,90.40477708945282,"(True, True, True)","[PeriodicSite: Cs (0.0, 0.9759, 3.396) [0.101, 0.101, 0.5935], PeriodicSite: Ge (0.0, 5.18, 0.742) [0.6309, 0.6309, 0.1297], PeriodicSite: Br (0.0, 4.971, 3.31) [0.5912, 0.5912, 0.5784], PeriodicSite: Br (2.219, 2.845, 0.5883) [0.6157, 0.07539, 0.1028], PeriodicSite: Br (-2.219, 2.845, 0.5883) [0.07539, 0.6157, 0.1028]]",191.7415934285745,"[Element Cs, Element Ge, Element Br, Element Br, Element Br]",False,False,-1.4989635465862072,0.0006243900000004743,1.4434000000000002
1132,mp,mp-1226650.cif,Ce1 Al3 Ag1,CeAl3Ag,I4mm,4.305624526627819,4.305624506986283,6.321598308523453,70.16755410863973,70.16752024642554,90.10063256377069,"(True, True, True)","[PeriodicSite: Ce (4.302, 4.302, 0.1483) [0.9863, 0.9863, 0.0273], PeriodicSite: Al (4.303, 2.147, 2.779) [0.7493, 0.249, 0.5016], PeriodicSite: Al (2.147, 4.303, 2.779) [0.249, 0.7493, 0.5016], PeriodicSite: Al (2.15, 2.15, 1.174) [0.3939, 0.3939, 0.212], PeriodicSite: Ag (4.301, 4.301, 4.197) [0.6214, 0.6214, 0.7575]]",102.79464769359234,"[Element Ce, Element Al, Element Al, Element Al, Element Ag]",True,True,-0.3525909543333327,0.0,0.0
1133,mp,mp-23818.cif,Ba1 Li1 H3,BaLiH3,Pm-3m,4.01142218,4.01142218,4.01142218,90.0,90.0,90.0,"(True, True, True)","[PeriodicSite: Ba (0.0, 0.0, 0.0) [-0.0, -0.0, -0.0], PeriodicSite: Li (2.006, 2.006, 2.006) [0.5, 0.5, 0.5], PeriodicSite: H (2.006, 0.0, 2.006) [0.5, -0.0, 0.5], PeriodicSite: H (2.006, 2.006, 0.0) [0.5, 0.5, -0.0], PeriodicSite: H (0.0, 2.006, 2.006) [-0.0, 0.5, 0.5]]",64.54983172455981,"[Element Ba, Element Li, Element H, Element H, Element H]",True,False,-0.6109562476666668,0.0,2.2146
1134,mp,mp-570223.cif,Cs1 Ge1 Br3,CsGeBr3,Pm-3m,5.53332714,5.53332714,5.53332714,90.0,90.0,90.0,"(True, True, True)","[PeriodicSite: Cs (0.0, 0.0, 0.0) [-0.0, 0.0, -0.0], PeriodicSite: Ge (2.767, 2.767, 2.767) [0.5, 0.5, 0.5], PeriodicSite: Br (2.767, 2.767, 0.0) [0.5, 0.5, -0.0], PeriodicSite: Br (2.767, 0.0, 2.767) [0.5, -0.0, 0.5], PeriodicSite: Br (0.0, 2.767, 2.767) [-0.0, 0.5, 0.5]]",169.417801492696,"[Element Cs, Element Ge, Element Br, Element Br, Element Br]",False,False,-1.487072404586207,0.012515532000000551,0.7606999999999999
1135,mp,mp-14625.cif,Nd1 Co1 Ge3,NdCoGe3,I4mm,5.77105185563026,5.77105185563026,5.77105185563026,136.34541727146234,136.34541727146234,63.44676443333654,"(True, True, True)","[PeriodicSite: Nd (0.0, 0.0, 6.527) [0.6649, 0.6649, 0.0], PeriodicSite: Co (0.0, 0.0, 9.801) [0.9983, 0.9983, -0.0], PeriodicSite: Ge (2.146, 2.22e-16, 3.985) [0.4059, 0.9059, 0.5], PeriodicSite: Ge (0.0, 0.0, 2.252) [0.2294, 0.2294, -0.0], PeriodicSite: Ge (2.22e-16, 2.146, 3.985) [0.9059, 0.4059, 0.5]]",90.40466036820595,"[Element Nd, Element Co, Element Ge, Element Ge, Element Ge]",True,False,-0.5672552754999998,0.0,0.0
1136,mp,mp-600089.cif,Cs1 Pb1 Br3,CsPbBr3,Pm-3m,5.948636320004472,5.948622910005815,5.9486332300017875,89.99992044160842,90.00002976216689,90.00013908263769,"(True, True, True)","[PeriodicSite: Cs (0.0, 0.0, 0.0) [0.0, 0.0, 0.0], PeriodicSite: Pb (2.974, 2.974, 2.974) [0.5, 0.5, 0.5], PeriodicSite: Br (2.974, 2.974, 1.545e-06) [0.5, 0.5, 0.0], PeriodicSite: Br (2.974, -1.545e-06, 2.974) [0.5, -0.0, 0.5], PeriodicSite: Br (-4.635e-06, 2.974, 2.974) [-0.0, 0.5, 0.5]]",210.49949127443736,"[Element Cs, Element Pb, Element Br, Element Br, Element Br]",False,False,-1.6783714855862069,0.00886406850000343,1.7819000000000003
1137,mp,mp-975206.cif,Rb1 Sb1 O3,RbSbO3,Pm-3m,4.09054,4.09054,4.09054,90.0,90.0,90.0,"(True, True, True)","[PeriodicSite: Rb (0.0, 0.0, 0.0) [0.0, 0.0, 0.0], PeriodicSite: Sb (2.045, 2.045, 2.045) [0.5, 0.5, 0.5], PeriodicSite: O (2.045, 2.045, 0.0) [0.5, 0.5, 0.0], PeriodicSite: O (2.045, 0.0, 2.045) [0.5, 0.0, 0.5], PeriodicSite: O (0.0, 2.045, 2.045) [0.0, 0.5, 0.5]]",68.44503210008946,"[Element Rb, Element Sb, Element O, Element O, Element O]",False,False,-1.7999744147500003,0.09665912159090784,0.0
1138,mp,mp-975990.cif,Na1 Li1 O3,NaLiO3,Pm-3m,3.837825,3.837825,3.837825,90.0,90.0,90.0,"(True, True, True)","[PeriodicSite: Na (0.0, 0.0, 0.0) [0.0, 0.0, 0.0], PeriodicSite: Li (1.919, 1.919, 1.919) [0.5, 0.5, 0.5], PeriodicSite: O (1.919, 1.919, 0.0) [0.5, 0.5, 0.0], PeriodicSite: O (1.919, 0.0, 1.919) [0.5, 0.0, 0.5], PeriodicSite: O (0.0, 1.919, 1.919) [0.0, 0.5, 0.5]]",56.52694344651089,"[Element Na, Element Li, Element O, Element O, Element O]",False,True,-0.7395967612270112,0.4691731509999979,0.0
1139,mp,mp-571458.cif,Rb1 Ge1 I3,RbGeI3,Pm-3m,5.91458197,5.91458197,5.91458197,90.0,90.0,90.0,"(True, True, True)","[PeriodicSite: Rb (2.957, 2.957, 2.957) [0.5, 0.5, 0.5], PeriodicSite: Ge (0.0, 0.0, 0.0) [0.0, -0.0, 0.0], PeriodicSite: I (2.957, 0.0, 0.0) [0.5, -0.0, -0.0], PeriodicSite: I (0.0, 0.0, 2.957) [-0.0, 0.0, 0.5], PeriodicSite: I (0.0, 2.957, 0.0) [-0.0, 0.5, -0.0]]",206.9055618468492,"[Element Rb, Element Ge, Element I, Element I, Element I]",False,False,-1.0523381525000002,0.012924005999999544,0.5540000000000003
1140,mp,mp-973919.cif,Np1 Os1 O3,NpOsO3,Pm-3m,3.983435,3.983435,3.983435,90.0,90.0,90.0,"(True, True, True)","[PeriodicSite: Np (1.992, 1.992, 1.992) [0.5, 0.5, 0.5], PeriodicSite: Os (0.0, 0.0, 0.0) [0.0, 0.0, 0.0], PeriodicSite: O (0.0, 0.0, 1.992) [0.0, 0.0, 0.5], PeriodicSite: O (0.0, 1.992, 0.0) [0.0, 0.5, 0.0], PeriodicSite: O (1.992, 0.0, 0.0) [0.5, 0.0, 0.0]]",63.208168245276845,"[Element Np, Element Os, Element O, Element O, Element O]",False,True,-1.6427945430000008,0.9734432959999975,0.0
1141,mp,mp-28166.cif,K3 Br1 O1,K3BrO,Pm-3m,5.19026401,5.19026401,5.19026401,90.0,90.0,90.0,"(True, True, True)","[PeriodicSite: K (0.0, 0.0, 2.595) [-0.0, 0.0, 0.5], PeriodicSite: K (0.0, 2.595, 0.0) [-0.0, 0.5, -0.0], PeriodicSite: K (2.595, 0.0, 0.0) [0.5, -0.0, -0.0], PeriodicSite: Br (2.595, 2.595, 2.595) [0.5, 0.5, 0.5], PeriodicSite: O (0.0, 0.0, 0.0) [0.0, -0.0, 0.0]]",139.8196942845503,"[Element K, Element K, Element K, Element Br, Element O]",True,False,-1.5938328715500003,0.0,0.8913
1142,mp,mp-983578.cif,Cs1 Bi1 O3,CsBiO3,Pm-3m,4.417567,4.417567,4.417567,90.0,90.0,90.0,"(True, True, True)","[PeriodicSite: Cs (0.0, 0.0, 0.0) [0.0, 0.0, 0.0], PeriodicSite: Bi (2.209, 2.209, 2.209) [0.5, 0.5, 0.5], PeriodicSite: O (2.209, 2.209, 0.0) [0.5, 0.5, 0.0], PeriodicSite: O (2.209, 0.0, 2.209) [0.5, 0.0, 0.5], PeriodicSite: O (0.0, 2.209, 2.209) [0.0, 0.5, 0.5]]",86.20837029442202,"[Element Cs, Element Bi, Element O, Element O, Element O]",False,False,-1.375373328836207,0.03955395242856685,0.0
1143,mp,mp-20747.cif,Li1 Si3 Pd1,LiSi3Pd,I4mm,7.201335586829084,7.201335586829084,7.201335586829084,152.54817498680026,152.54817498680026,39.2133207332819,"(True, True, True)","[PeriodicSite: Li (0.0, 0.0, 8.199) [0.6043, 0.6043, 0.0], PeriodicSite: Si (1.709, -1.11e-16, 3.579) [0.2638, 0.7638, 0.5], PeriodicSite: Si (-1.11e-16, 1.709, 3.579) [0.7638, 0.2638, 0.5], PeriodicSite: Si (0.0, 0.0, 5.548) [0.4089, 0.4089, 0.0], PeriodicSite: Pd (0.0, 0.0, 13.3) [0.9803, 0.9803, 0.0]]",79.22672695343037,"[Element Li, Element Si, Element Si, Element Si, Element Pd]",False,False,0.06614383333333365,0.3891782534421768,0.0
1144,mp,mp-977107.cif,Na1 Ru1 O3,NaRuO3,Pm-3m,3.867457,3.867457,3.867457,90.0,90.0,90.0,"(True, True, True)","[PeriodicSite: Na (0.0, 0.0, 0.0) [0.0, 0.0, 0.0], PeriodicSite: Ru (1.934, 1.934, 1.934) [0.5, 0.5, 0.5], PeriodicSite: O (1.934, 1.934, 0.0) [0.5, 0.5, 0.0], PeriodicSite: O (1.934, 0.0, 1.934) [0.5, 0.0, 0.5], PeriodicSite: O (0.0, 1.934, 1.934) [0.0, 0.5, 0.5]]",57.84641929357169,"[Element Na, Element Ru, Element O, Element O, Element O]",False,False,-1.523224144560345,0.08907671737500245,0.0
1145,mp,mp-4783.cif,Ba1 Pr1 O3,BaPrO3,Pm-3m,4.590468,4.590468,4.590468,90.0,90.0,90.0,"(True, True, True)","[PeriodicSite: Ba (2.295, 2.295, 2.295) [0.5, 0.5, 0.5], PeriodicSite: Pr (0.0, 0.0, 0.0) [0.0, 0.0, 0.0], PeriodicSite: O (0.0, 2.295, 0.0) [0.0, 0.5, 0.0], PeriodicSite: O (0.0, 0.0, 2.295) [0.0, 0.0, 0.5], PeriodicSite: O (2.295, 0.0, 0.0) [0.5, 0.0, 0.0]]",96.732161628463,"[Element Ba, Element Pr, Element O, Element O, Element O]",False,True,-2.8948192722500004,0.1908281109999983,0.0
1146,mp,mp-978842.cif,Sr1 Ca1 O3,SrCaO3,Pm-3m,4.376349,4.376349,4.376349,90.0,90.0,90.0,"(True, True, True)","[PeriodicSite: Sr (0.0, 0.0, 0.0) [0.0, 0.0, 0.0], PeriodicSite: Ca (2.188, 2.188, 2.188) [0.5, 0.5, 0.5], PeriodicSite: O (2.188, 2.188, 0.0) [0.5, 0.5, 0.0], PeriodicSite: O (2.188, 0.0, 2.188) [0.5, 0.0, 0.5], PeriodicSite: O (0.0, 2.188, 2.188) [0.0, 0.5, 0.5]]",83.81772037171805,"[Element Sr, Element Ca, Element O, Element O, Element O]",False,True,-2.1791328145833333,0.46731272599999674,0.0
1147,mp,mp-22351.cif,Nb1 Ru3 C1,NbRu3C,Pm-3m,4.065138,4.065138,4.065138,90.0,90.0,90.0,"(True, True, True)","[PeriodicSite: Nb (0.0, 0.0, 0.0) [0.0, 0.0, 0.0], PeriodicSite: Ru (0.0, 2.033, 2.033) [0.0, 0.5, 0.5], PeriodicSite: Ru (2.033, 0.0, 2.033) [0.5, 0.0, 0.5], PeriodicSite: Ru (2.033, 2.033, 0.0) [0.5, 0.5, 0.0], PeriodicSite: C (2.033, 2.033, 2.033) [0.5, 0.5, 0.5]]",67.17781588639421,"[Element Nb, Element Ru, Element Ru, Element Ru, Element C]",False,False,-0.02952013149999857,0.17016543475000034,0.0
1148,mp,mp-22513.cif,Dy3 Tl1 C1,Dy3TlC,Pm-3m,5.613253,5.613253,5.613253,90.0,90.0,90.0,"(True, True, True)","[PeriodicSite: Dy (0.0, 2.807, 2.807) [0.0, 0.5, 0.5], PeriodicSite: Dy (2.807, 2.807, 0.0) [0.5, 0.5, 0.0], PeriodicSite: Dy (2.807, 0.0, 2.807) [0.5, 0.0, 0.5], PeriodicSite: Tl (2.807, 2.807, 2.807) [0.5, 0.5, 0.5], PeriodicSite: C (0.0, 0.0, 0.0) [0.0, 0.0, 0.0]]",176.8657953535348,"[Element Dy, Element Dy, Element Dy, Element Tl, Element C]",False,False,1.617325907833333,1.916393434000002,0.0
1149,mp,mp-973156.cif,Sc1 As1 O3,ScAsO3,Pm-3m,3.942009,3.942009,3.942009,90.0,90.0,90.0,"(True, True, True)","[PeriodicSite: Sc (0.0, 0.0, 0.0) [0.0, 0.0, 0.0], PeriodicSite: As (1.971, 1.971, 1.971) [0.5, 0.5, 0.5], PeriodicSite: O (1.971, 1.971, 0.0) [0.5, 0.5, 0.0], PeriodicSite: O (1.971, 0.0, 1.971) [0.5, 0.0, 0.5], PeriodicSite: O (0.0, 1.971, 1.971) [0.0, 0.5, 0.5]]",61.25659245178591,"[Element Sc, Element As, Element O, Element O, Element O]",False,False,-1.7526759392499998,1.0469960326249979,0.0
1150,mp,mp-558694.cif,Cs1 Fe1 F3,CsFeF3,Pm-3m,4.31177,4.31177,4.31177,90.0,90.0,90.0,"(True, True, True)","[PeriodicSite: Cs (0.0, 0.0, 0.0) [0.0, 0.0, 0.0], PeriodicSite: Fe (2.156, 2.156, 2.156) [0.5, 0.5, 0.5], PeriodicSite: F (0.0, 2.156, 2.156) [0.0, 0.5, 0.5], PeriodicSite: F (2.156, 2.156, 0.0) [0.5, 0.5, 0.0], PeriodicSite: F (2.156, 0.0, 2.156) [0.5, 0.0, 0.5]]",80.16167060494224,"[Element Cs, Element Fe, Element F, Element F, Element F]",False,True,-2.4394510310862074,0.31336022525001006,0.0
1151,mp,mp-863708.cif,K1 Pu1 O3,KPuO3,Pm-3m,4.24710281,4.24713127,4.24712415,90.0,90.0,90.0,"(True, True, True)","[PeriodicSite: K (0.0, 0.0, 0.0) [0.0, 0.0, 0.0], PeriodicSite: Pu (2.124, 2.124, 2.124) [0.5, 0.5, 0.5], PeriodicSite: O (2.124, 2.124, 0.0) [0.5, 0.5, 0.0], PeriodicSite: O (2.124, 0.0, 2.124) [0.5, 0.0, 0.5], PeriodicSite: O (0.0, 2.124, 2.124) [0.0, 0.5, 0.5]]",76.6096388014749,"[Element K, Element Pu, Element O, Element O, Element O]",False,True,-3.02093993785,1.739400000211333e-05,0.0
1152,mp,mp-976320.cif,Eu1 Re1 O3,EuReO3,Pm-3m,4.001367,4.001367,4.001367,90.0,90.0,90.0,"(True, True, True)","[PeriodicSite: Eu (0.0, 0.0, 0.0) [0.0, 0.0, 0.0], PeriodicSite: Re (2.001, 2.001, 2.001) [0.5, 0.5, 0.5], PeriodicSite: O (2.001, 2.001, 0.0) [0.5, 0.5, 0.0], PeriodicSite: O (2.001, 0.0, 2.001) [0.5, 0.0, 0.5], PeriodicSite: O (0.0, 2.001, 2.001) [0.0, 0.5, 0.5]]",64.0656384268225,"[Element Eu, Element Re, Element O, Element O, Element O]",False,True,-2.360392452250001,0.209718244411766,0.0
1153,mp,mp-22502.cif,Mn3 Ir1 N1,Mn3IrN,Pm-3m,3.907042,3.907042,3.907042,90.0,90.0,90.0,"(True, True, True)","[PeriodicSite: Mn (0.0, 1.954, 1.954) [0.0, 0.5, 0.5], PeriodicSite: Mn (1.954, 1.954, 0.0) [0.5, 0.5, 0.0], PeriodicSite: Mn (1.954, 0.0, 1.954) [0.5, 0.0, 0.5], PeriodicSite: Ir (0.0, 0.0, 0.0) [0.0, 0.0, 0.0], PeriodicSite: N (1.954, 1.954, 1.954) [0.5, 0.5, 0.5]]",59.640907009449926,"[Element Mn, Element Mn, Element Mn, Element Ir, Element N]",False,True,-0.21870464775862075,0.08642436700000289,0.0