,provider,id,Full_Formula,formula,space_group,a_lattice_param,b_lattice_param,c_lattice_param,aplha_degree,beta_degree,gamma_degree,pbc,sits,volume,species_at_sites,is_stable,is_magnetic,formation_energy,energy_above_hull,band_gap
1333,mp,mp-1245828.cif,Ce3 Sn1 N1,Ce3SnN,Pm-3m,5.878219,5.878219,5.878219,90.0,90.0,90.0,"(True, True, True)","[PeriodicSite: Ce (2.939, 2.939, 0.0) [0.5, 0.5, 0.0], PeriodicSite: Ce (0.0, 2.939, 2.939) [0.0, 0.5, 0.5], PeriodicSite: Ce (2.939, 0.0, 2.939) [0.5, 0.0, 0.5], PeriodicSite: Sn (2.939, 2.939, 2.939) [0.5, 0.5, 0.5], PeriodicSite: N (0.0, 0.0, 0.0) [0.0, 0.0, 0.0]]",203.11279692854276,"[Element Ce, Element Ce, Element Ce, Element Sn, Element N]",False,True,1.2825570450000001,2.331925607999999,0.0
1334,mp,mp-16290.cif,Zn1 Ni3 C1,ZnNi3C,Pm-3m,3.766253,3.766253,3.766253,90.0,90.0,90.0,"(True, True, True)","[PeriodicSite: Zn (0.0, 0.0, 0.0) [0.0, 0.0, 0.0], PeriodicSite: Ni (0.0, 1.883, 1.883) [0.0, 0.5, 0.5], PeriodicSite: Ni (1.883, 1.883, 0.0) [0.5, 0.5, 0.0], PeriodicSite: Ni (1.883, 0.0, 1.883) [0.5, 0.0, 0.5], PeriodicSite: C (1.883, 1.883, 1.883) [0.5, 0.5, 0.5]]",53.42302453099387,"[Element Zn, Element Ni, Element Ni, Element Ni, Element C]",False,False,-0.059459465499999455,0.04252874849999966,0.0
1335,mp,mp-975564.cif,Pu1 B1 O3,PuBO3,Pm-3m,3.562941,3.562941,3.562941,90.0,90.0,90.0,"(True, True, True)","[PeriodicSite: Pu (0.0, 0.0, 0.0) [0.0, 0.0, 0.0], PeriodicSite: B (1.781, 1.781, 1.781) [0.5, 0.5, 0.5], PeriodicSite: O (1.781, 1.781, 0.0) [0.5, 0.5, 0.0], PeriodicSite: O (1.781, 0.0, 1.781) [0.5, 0.0, 0.5], PeriodicSite: O (0.0, 1.781, 1.781) [0.0, 0.5, 0.5]]",45.229927574695196,"[Element Pu, Element B, Element O, Element O, Element O]",False,True,-2.359631319083333,0.7867055536666641,0.0
1336,mp,mp-20530.cif,Ce1 Cr1 O3,CeCrO3,Pm-3m,3.90655,3.90655,3.90655,90.0,90.0,90.0,"(True, True, True)","[PeriodicSite: Ce (0.0, 0.0, 0.0) [0.0, 0.0, 0.0], PeriodicSite: Cr (1.953, 1.953, 1.953) [0.5, 0.5, 0.5], PeriodicSite: O (0.0, 1.953, 1.953) [0.0, 0.5, 0.5], PeriodicSite: O (1.953, 0.0, 1.953) [0.5, 0.0, 0.5], PeriodicSite: O (1.953, 1.953, 0.0) [0.5, 0.5, 0.0]]",59.618378740261385,"[Element Ce, Element Cr, Element O, Element O, Element O]",False,True,-2.9719559342500004,0.1834006763999998,0.0
1337,mp,mp-975134.cif,K1 Rh1 O3,KRhO3,Pm-3m,3.991577,3.991577,3.991577,90.0,90.0,90.0,"(True, True, True)","[PeriodicSite: K (0.0, 0.0, 0.0) [0.0, 0.0, 0.0], PeriodicSite: Rh (1.996, 1.996, 1.996) [0.5, 0.5, 0.5], PeriodicSite: O (1.996, 1.996, 0.0) [0.5, 0.5, 0.0], PeriodicSite: O (1.996, 0.0, 1.996) [0.5, 0.0, 0.5], PeriodicSite: O (0.0, 1.996, 1.996) [0.0, 0.5, 0.5]]",63.59654676556202,"[Element K, Element Rh, Element O, Element O, Element O]",False,True,-1.1891898658500004,0.06112404400000315,0.0
1338,mp,mp-29056.cif,La3 In1 C1,La3InC,Pm-3m,5.24935926,5.24935926,5.24935926,90.0,90.0,90.0,"(True, True, True)","[PeriodicSite: La (2.625, 0.0, 2.625) [0.5, 0.0, 0.5], PeriodicSite: La (2.625, 2.625, 0.0) [0.5, 0.5, 0.0], PeriodicSite: La (0.0, 2.625, 2.625) [-0.0, 0.5, 0.5], PeriodicSite: In (0.0, 0.0, 0.0) [-0.0, 0.0, 0.0], PeriodicSite: C (2.625, 2.625, 2.625) [0.5, 0.5, 0.5]]",144.650150277114,"[Element La, Element La, Element La, Element In, Element C]",True,False,-0.3200725984999998,0.0,0.0
1339,mp,mp-974740.cif,Nd1 Bi1 O3,NdBiO3,Pm-3m,4.435676,4.435676,4.435676,90.0,90.0,90.0,"(True, True, True)","[PeriodicSite: Nd (2.218, 2.218, 2.218) [0.5, 0.5, 0.5], PeriodicSite: Bi (0.0, 0.0, 0.0) [0.0, 0.0, 0.0], PeriodicSite: O (0.0, 0.0, 2.218) [0.0, 0.0, 0.5], PeriodicSite: O (0.0, 2.218, 0.0) [0.0, 0.5, 0.0], PeriodicSite: O (2.218, 0.0, 0.0) [0.5, 0.0, 0.0]]",87.2729081436746,"[Element Nd, Element Bi, Element O, Element O, Element O]",False,False,-1.8960712607499992,0.8262384297500027,0.0
1340,mp,mp-977389.cif,Ce1 Cu1 O3,CeCuO3,Pm-3m,3.832895,3.832895,3.832895,90.0,90.0,90.0,"(True, True, True)","[PeriodicSite: Ce (1.916, 1.916, 1.916) [0.5, 0.5, 0.5], PeriodicSite: Cu (0.0, 0.0, 0.0) [0.0, 0.0, 0.0], PeriodicSite: O (0.0, 0.0, 1.916) [0.0, 0.0, 0.5], PeriodicSite: O (0.0, 1.916, 0.0) [0.0, 0.5, 0.0], PeriodicSite: O (1.916, 0.0, 0.0) [0.5, 0.0, 0.0]]",56.30938271874032,"[Element Ce, Element Cu, Element O, Element O, Element O]",False,True,-2.3357207562500006,0.3992384580000037,0.0
1341,mp,mp-1227958.cif,Ba1 Ge1 Au3,BaGeAu3,I4mm,6.137866081939155,6.137866081939155,6.137866081939155,133.95467138238655,133.95467138238655,67.15881598442591,"(True, True, True)","[PeriodicSite: Ba (0.0, 0.0, 0.05536) [0.005413, 0.005413, 0.0], PeriodicSite: Ge (0.0, 0.0, 3.661) [0.3579, 0.3579, 0.0], PeriodicSite: Au (0.0, 2.4, 2.703) [0.7642, 0.2642, 0.5], PeriodicSite: Au (2.4, 0.0, 2.703) [0.2642, 0.7642, 0.5], PeriodicSite: Au (0.0, 0.0, 6.22) [0.6081, 0.6081, -0.0]]",117.86499185060907,"[Element Ba, Element Ge, Element Au, Element Au, Element Au]",True,False,-0.5119609609999998,0.0,0.0
1342,mp,mp-22087.cif,Ta1 Ru3 C1,TaRu3C,Pm-3m,4.055608,4.055608,4.055608,90.0,90.0,90.0,"(True, True, True)","[PeriodicSite: Ta (0.0, 0.0, 0.0) [0.0, 0.0, 0.0], PeriodicSite: Ru (0.0, 2.028, 2.028) [0.0, 0.5, 0.5], PeriodicSite: Ru (2.028, 2.028, 0.0) [0.5, 0.5, 0.0], PeriodicSite: Ru (2.028, 0.0, 2.028) [0.5, 0.0, 0.5], PeriodicSite: C (2.028, 2.028, 2.028) [0.5, 0.5, 0.5]]",66.70646294978734,"[Element Ta, Element Ru, Element Ru, Element Ru, Element C]",False,False,-0.07657221350000043,0.15355960599999818,0.0
1343,mp,mp-972296.cif,Zr1 Os1 O3,ZrOsO3,Pm-3m,3.926308,3.926308,3.926308,90.0,90.0,90.0,"(True, True, True)","[PeriodicSite: Zr (0.0, 0.0, 0.0) [0.0, 0.0, 0.0], PeriodicSite: Os (1.963, 1.963, 1.963) [0.5, 0.5, 0.5], PeriodicSite: O (1.963, 1.963, 0.0) [0.5, 0.5, 0.0], PeriodicSite: O (1.963, 0.0, 1.963) [0.5, 0.0, 0.5], PeriodicSite: O (0.0, 1.963, 1.963) [0.0, 0.5, 0.5]]",60.52754994516142,"[Element Zr, Element Os, Element O, Element O, Element O]",False,False,-1.232324691250001,1.4596295990000012,0.0
1344,mp,mp-1207194.cif,Cu3 Rh1 N1,Cu3RhN,Pm-3m,3.848768,3.848768,3.848768,90.0,90.0,90.0,"(True, True, True)","[PeriodicSite: Cu (1.924, 0.0, 0.0) [0.5, 0.0, 0.0], PeriodicSite: Cu (0.0, 1.924, 0.0) [0.0, 0.5, 0.0], PeriodicSite: Cu (0.0, 0.0, 1.924) [0.0, 0.0, 0.5], PeriodicSite: Rh (1.924, 1.924, 1.924) [0.5, 0.5, 0.5], PeriodicSite: N (0.0, 0.0, 0.0) [0.0, 0.0, 0.0]]",57.01185856899725,"[Element Cu, Element Cu, Element Cu, Element Rh, Element N]",False,False,0.2538030130000003,0.25380301300000063,0.0
1345,mp,mp-30433.cif,Ba1 Sn3 Pt1,BaSn3Pt,I4mm,4.9336489626699125,4.933649025396896,6.608819910555205,111.9708301332073,111.9708375014787,89.97635849838122,"(True, True, True)","[PeriodicSite: Ba (0.006135, 0.007218, 0.01521) [0.001605, 0.001605, 0.003195], PeriodicSite: Sn (3.255, 1.137, 1.492) [0.7528, 0.2529, 0.5057], PeriodicSite: Sn (0.5981, 3.396, 1.492) [0.2529, 0.7528, 0.5057], PeriodicSite: Sn (1.597, 1.879, 3.982) [0.4178, 0.4178, 0.8351], PeriodicSite: Pt (2.509, 2.952, -0.367) [0.654, 0.654, 0.3086]]",136.51347261001945,"[Element Ba, Element Sn, Element Sn, Element Sn, Element Pt]",True,False,-0.6811848190000006,0.0,0.0
1346,mp,mp-998781.cif,Tl1 Ni1 O3,TlNiO3,Pm,3.782724,3.913127,3.934731883501721,81.97739593768598,90.0,90.0,"(True, True, True)","[PeriodicSite: Tl (0.0, 3.826, 0.04351) [0.0, 0.9763, 0.01117], PeriodicSite: Ni (1.891, 2.234, 1.956) [0.5, 0.5004, 0.502], PeriodicSite: O (0.0, 2.03, 2.246) [0.0, 0.4378, 0.5763], PeriodicSite: O (1.891, 0.2895, 1.538) [0.5, 0.01857, 0.3948], PeriodicSite: O (1.891, 2.916, 3.84) [0.5, 0.607, 0.9857]]",57.6729815206356,"[Element Tl, Element Ni, Element O, Element O, Element O]",False,True,-0.7365869979166668,0.3046017818750002,0.0
1347,mp,mp-1218986.cif,Sm1 Sb1 Te3,SmSbTe3,R3m,4.4038742086551474,4.4038742086551474,10.838103956911466,78.27782463907543,78.27782463907543,59.999996865370655,"(True, True, True)","[PeriodicSite: Sm (0.0, -5.085, 2.036) [0.6022, 0.6022, 0.1933], PeriodicSite: Sb (0.0, -5.085, 8.453) [0.3992, 0.3992, 0.8023], PeriodicSite: Te (0.0, -2.543, 3.741) [0.215, 0.215, 0.3551], PeriodicSite: Te (0.0, -7.628, 6.828) [0.784, 0.784, 0.6481], PeriodicSite: Te (0.0, -7.628, 0.01258) [0.9996, 0.9996, 0.001194]]",176.95446119676572,"[Element Sm, Element Sb, Element Te, Element Te, Element Te]",False,False,-0.9952540290000002,0.058006843142856646,0.8487999999999998
1348,mp,mp-1206844.cif,Rb1 Pa1 O3,RbPaO3,Pm-3m,4.38112501,4.38112501,4.38112501,90.0,90.0,90.0,"(True, True, True)","[PeriodicSite: Rb (2.191, 2.191, 2.191) [0.5, 0.5, 0.5], PeriodicSite: Pa (0.0, 0.0, 0.0) [0.0, 0.0, 0.0], PeriodicSite: O (2.191, 0.0, 0.0) [0.5, -0.0, -0.0], PeriodicSite: O (0.0, 2.191, 0.0) [-0.0, 0.5, -0.0], PeriodicSite: O (0.0, 0.0, 2.191) [-0.0, 0.0, 0.5]]",84.09243655756401,"[Element Rb, Element Pa, Element O, Element O, Element O]",True,False,-3.5373029887499996,0.0,3.0009999999999994
1349,mp,mp-983513.cif,Pm1 Ru1 O3,PmRuO3,Pm-3m,3.963814,3.963814,3.963814,90.0,90.0,90.0,"(True, True, True)","[PeriodicSite: Pm (1.982, 1.982, 1.982) [0.5, 0.5, 0.5], PeriodicSite: Ru (0.0, 0.0, 0.0) [0.0, 0.0, 0.0], PeriodicSite: O (0.0, 0.0, 1.982) [0.0, 0.0, 0.5], PeriodicSite: O (0.0, 1.982, 0.0) [0.0, 0.5, 0.0], PeriodicSite: O (1.982, 0.0, 0.0) [0.5, 0.0, 0.0]]",62.278737736241204,"[Element Pm, Element Ru, Element O, Element O, Element O]",False,True,-2.1869127487499993,0.3878489304999988,0.0
1350,mp,mp-973123.cif,Sc1 Pd1 O3,ScPdO3,Pm-3m,4.078754,4.078754,4.078754,90.0,90.0,90.0,"(True, True, True)","[PeriodicSite: Sc (0.0, 0.0, 0.0) [0.0, 0.0, 0.0], PeriodicSite: Pd (2.039, 2.039, 2.039) [0.5, 0.5, 0.5], PeriodicSite: O (0.0, 0.0, 2.039) [0.0, 0.0, 0.5], PeriodicSite: O (0.0, 2.039, 0.0) [0.0, 0.5, 0.0], PeriodicSite: O (2.039, 0.0, 0.0) [0.5, 0.0, 0.0]]",67.8551067576614,"[Element Sc, Element Pd, Element O, Element O, Element O]",False,True,-1.5412872682499994,0.8200657298750009,0.0
1351,mp,mp-978504.cif,Sm1 Ga1 O3,SmGaO3,Pm-3m,3.862137,3.862137,3.862137,90.0,90.0,90.0,"(True, True, True)","[PeriodicSite: Sm (0.0, 0.0, 0.0) [0.0, 0.0, 0.0], PeriodicSite: Ga (1.931, 1.931, 1.931) [0.5, 0.5, 0.5], PeriodicSite: O (1.931, 1.931, 0.0) [0.5, 0.5, 0.0], PeriodicSite: O (1.931, 0.0, 1.931) [0.5, 0.0, 0.5], PeriodicSite: O (0.0, 1.931, 1.931) [0.0, 0.5, 0.5]]",57.60803022854421,"[Element Sm, Element Ga, Element O, Element O, Element O]",False,False,-2.9136645537499994,0.2101929910833107,2.872
1352,mp,mp-1412222.cif,Tl1 Cd1 F3,TlCdF3,Cm,4.418375516068026,4.418375516068026,4.419349275303454,89.95704768319263,89.95704768319263,90.0340807417312,"(True, True, True)","[PeriodicSite: Tl (0.0, 6.203, 0.06526) [0.993, 0.993, 0.01517], PeriodicSite: Cd (0.0, 3.12, 2.23) [0.499, 0.499, 0.5048], PeriodicSite: F (1.545, 4.703, 2.21) [0.9996, 0.5053, 0.5003], PeriodicSite: F (-1.545, 4.703, 2.21) [0.5053, 0.9996, 0.5003], PeriodicSite: F (0.0, 3.124, 0.0164) [0.5002, 0.5002, 0.003916]]",86.27465927655057,"[Element Tl, Element Cd, Element F, Element F, Element F]",False,False,-2.2905692141666667,0.00890207625000361,4.1944
1353,mp,mp-975394.cif,Rb1 Be1 O3,RbBeO3,Pm-3m,3.881145,3.881145,3.881145,90.0,90.0,90.0,"(True, True, True)","[PeriodicSite: Rb (1.941, 1.941, 1.941) [0.5, 0.5, 0.5], PeriodicSite: Be (0.0, 0.0, 0.0) [0.0, 0.0, 0.0], PeriodicSite: O (0.0, 0.0, 1.941) [0.0, 0.0, 0.5], PeriodicSite: O (0.0, 1.941, 0.0) [0.0, 0.5, 0.0], PeriodicSite: O (1.941, 0.0, 0.0) [0.5, 0.0, 0.0]]",58.46279912583213,"[Element Rb, Element Be, Element O, Element O, Element O]",False,True,-1.0493350797500007,0.7759267949999984,0.0
1354,mp,mp-1206514.cif,Mg3 As1 N1,Mg3AsN,Pm-3m,4.20628578,4.20628578,4.20628578,90.0,90.0,90.0,"(True, True, True)","[PeriodicSite: Mg (2.103, 0.0, 0.0) [0.5, -0.0, -0.0], PeriodicSite: Mg (0.0, 2.103, 0.0) [-0.0, 0.5, -0.0], PeriodicSite: Mg (0.0, 0.0, 2.103) [-0.0, 0.0, 0.5], PeriodicSite: As (2.103, 2.103, 2.103) [0.5, 0.5, 0.5], PeriodicSite: N (0.0, 0.0, 0.0) [0.0, -0.0, 0.0]]",74.42114156493827,"[Element Mg, Element Mg, Element Mg, Element As, Element N]",True,False,-0.8070416819999998,0.0,2.2817999999999996
1355,mp,mp-977408.cif,Nb1 Tl1 O3,NbTlO3,Pm-3m,4.108551,4.108551,4.108551,90.0,90.0,90.0,"(True, True, True)","[PeriodicSite: Nb (2.054, 2.054, 2.054) [0.5, 0.5, 0.5], PeriodicSite: Tl (0.0, 0.0, 0.0) [0.0, 0.0, 0.0], PeriodicSite: O (2.054, 2.054, 0.0) [0.5, 0.5, 0.0], PeriodicSite: O (2.054, 0.0, 2.054) [0.5, 0.0, 0.5], PeriodicSite: O (0.0, 2.054, 2.054) [0.0, 0.5, 0.5]]",69.35312692633802,"[Element Nb, Element Tl, Element O, Element O, Element O]",False,False,-2.3650006759166664,0.09067409724999642,0.11160000000000014
1356,mp,mp-973869.cif,La1 Cd1 O3,LaCdO3,Pm-3m,4.180291,4.180291,4.180291,90.0,90.0,90.0,"(True, True, True)","[PeriodicSite: La (0.0, 0.0, 0.0) [0.0, 0.0, 0.0], PeriodicSite: Cd (2.09, 2.09, 2.09) [0.5, 0.5, 0.5], PeriodicSite: O (2.09, 2.09, 0.0) [0.5, 0.5, 0.0], PeriodicSite: O (2.09, 0.0, 2.09) [0.5, 0.0, 0.5], PeriodicSite: O (0.0, 2.09, 2.09) [0.0, 0.5, 0.5]]",73.04988646712441,"[Element La, Element Cd, Element O, Element O, Element O]",False,False,-2.07323623225,0.41035608774999943,0.0
1357,mp,mp-972058.cif,Yb1 Tm1 O3,YbTmO3,Pm-3m,4.241629,4.241629,4.241629,90.0,90.0,90.0,"(True, True, True)","[PeriodicSite: Yb (0.0, 0.0, 0.0) [0.0, 0.0, 0.0], PeriodicSite: Tm (2.121, 2.121, 2.121) [0.5, 0.5, 0.5], PeriodicSite: O (2.121, 2.121, 0.0) [0.5, 0.5, 0.0], PeriodicSite: O (2.121, 0.0, 2.121) [0.5, 0.0, 0.5], PeriodicSite: O (0.0, 2.121, 2.121) [0.0, 0.5, 0.5]]",76.31291428983629,"[Element Yb, Element Tm, Element O, Element O, Element O]",False,True,-3.0272667425833335,0.47162426637499966,0.0
1358,mp,mp-1227995.cif,Ba1 In3 Pt1,BaIn3Pt,I4mm,6.772628051691918,6.772628051691918,6.772628051691918,138.33117604996963,138.33117604996963,60.39616392403752,"(True, True, True)","[PeriodicSite: Ba (0.0, 0.0, 11.68) [0.9974, 0.9974, -0.0], PeriodicSite: In (2.22e-16, 2.409, 2.787) [0.7381, 0.2381, 0.5], PeriodicSite: In (2.409, 2.22e-16, 2.787) [0.2381, 0.7381, 0.5], PeriodicSite: In (0.0, 0.0, 4.67) [0.3989, 0.3989, 0.0], PeriodicSite: Pt (0.0, 0.0, 7.347) [0.6276, 0.6276, -0.0]]",135.85713004346914,"[Element Ba, Element In, Element In, Element In, Element Pt]",False,False,-0.5343199179999999,0.0023114265000003797,0.0
1359,mp,mp-8578.cif,Sc3 In1 C1,Sc3InC,Pm-3m,4.55061831,4.55061831,4.55062449,90.0,90.0,90.0,"(True, True, True)","[PeriodicSite: Sc (2.275, 0.0, 2.275) [0.5, 0.0, 0.5], PeriodicSite: Sc (0.0, 2.275, 2.275) [0.0, 0.5, 0.5], PeriodicSite: Sc (2.275, 2.275, 0.0) [0.5, 0.5, 0.0], PeriodicSite: In (0.0, 0.0, 0.0) [-0.0, -0.0, -0.0], PeriodicSite: C (2.275, 2.275, 2.275) [0.5, 0.5, 0.5]]",94.2349098832803,"[Element Sc, Element Sc, Element Sc, Element In, Element C]",True,False,-0.6685445764999998,0.0,0.0
1360,mp,mp-505571.cif,Mn3 Sn1 N1,Mn3SnN,Pm-3m,3.878941,3.878941,3.878941,90.0,90.0,90.0,"(True, True, True)","[PeriodicSite: Mn (0.0, 1.939, 1.939) [0.0, 0.5, 0.5], PeriodicSite: Mn (1.939, 1.939, 0.0) [0.5, 0.5, 0.0], PeriodicSite: Mn (1.939, 0.0, 1.939) [0.5, 0.0, 0.5], PeriodicSite: Sn (0.0, 0.0, 0.0) [0.0, 0.0, 0.0], PeriodicSite: N (1.939, 1.939, 1.939) [0.5, 0.5, 0.5]]",58.363257224051196,"[Element Mn, Element Mn, Element Mn, Element Sn, Element N]",False,True,-0.2085801627586207,0.03576124125000035,0.0
1361,mp,mp-31157.cif,Ca3 Sb1 N1,Ca3SbN,Pm-3m,5.757405,5.757405,5.757405,90.0,90.0,90.0,"(True, True, True)","[PeriodicSite: Ca (2.879, 2.879, 0.0) [0.5, 0.5, 0.0], PeriodicSite: Ca (2.879, 0.0, 2.879) [0.5, 0.0, 0.5], PeriodicSite: Ca (0.0, 2.879, 2.879) [0.0, 0.5, 0.5], PeriodicSite: Sb (2.879, 2.879, 2.879) [0.5, 0.5, 0.5], PeriodicSite: N (0.0, 0.0, 0.0) [0.0, 0.0, 0.0]]",190.84480473047722,"[Element Ca, Element Ca, Element Ca, Element Sb, Element N]",False,False,0.48011594700000015,1.6832429560000004,0.0
1362,mp,mp-1226791.cif,Ca1 Al3 Au1,CaAl3Au,Cm,4.1670066646463475,4.167007674645365,6.503251026074866,71.22534504630823,71.22534512890026,90.09656240992712,"(True, True, True)","[PeriodicSite: Ca (2.088, 2.088, 5.77) [0.002094, 0.002094, 0.9958], PeriodicSite: Al (4.167, 2.085, 2.935) [0.7467, 0.2476, 0.5057], PeriodicSite: Al (2.085, 4.167, 2.935) [0.2476, 0.7467, 0.5057], PeriodicSite: Al (2.084, 2.084, 1.25) [0.3926, 0.3926, 0.2152], PeriodicSite: Au (4.168, 4.168, 4.511) [0.6111, 0.6111, 0.7776]]",100.52460749383536,"[Element Ca, Element Al, Element Al, Element Al, Element Au]",True,False,-0.49150515400000006,0.0,0.0
1363,mp,mp-998153.cif,Tl1 Ge1 Br3,TlGeBr3,Cm,5.560484490478145,5.560484490478145,5.551330212903751,89.1086683357861,89.1086683357861,89.29557562094233,"(True, True, True)","[PeriodicSite: Tl (0.0, 0.1587, 5.52) [0.004801, 0.004801, 0.9946], PeriodicSite: Ge (0.0, 4.157, 2.949) [0.5172, 0.5172, 0.5313], PeriodicSite: Br (1.921, 5.946, 2.866) [0.9895, 0.4978, 0.5164], PeriodicSite: Br (0.0, 3.881, 0.02655) [0.4904, 0.4904, 0.004783], PeriodicSite: Br (-1.921, 5.946, 2.866) [0.4978, 0.9895, 0.5164]]",171.58750587347944,"[Element Tl, Element Ge, Element Br, Element Br, Element Br]",False,False,-1.0508834536666662,0.02799973800000055,0.7555999999999998
1364,mp,mp-983564.cif,Eu1 As1 O3,EuAsO3,Pm-3m,3.998452,3.998452,3.998452,90.0,90.0,90.0,"(True, True, True)","[PeriodicSite: Eu (0.0, 0.0, 0.0) [0.0, 0.0, 0.0], PeriodicSite: As (1.999, 1.999, 1.999) [0.5, 0.5, 0.5], PeriodicSite: O (1.999, 1.999, 0.0) [0.5, 0.5, 0.0], PeriodicSite: O (1.999, 0.0, 1.999) [0.5, 0.0, 0.5], PeriodicSite: O (0.0, 1.999, 1.999) [0.0, 0.5, 0.5]]",63.92572475193852,"[Element Eu, Element As, Element O, Element O, Element O]",False,True,-2.267981158250001,0.145804072928561,0.0
1365,mp,mp-1206894.cif,Lu3 Al1 C1,Lu3AlC,Pm-3m,4.71874906,4.71875517,4.71874906,90.0,90.0,90.0,"(True, True, True)","[PeriodicSite: Lu (2.359, 0.0, 0.0) [0.5, -0.0, 0.0], PeriodicSite: Lu (0.0, 2.359, 0.0) [0.0, 0.5, 0.0], PeriodicSite: Lu (0.0, 0.0, 2.359) [0.0, 0.0, 0.5], PeriodicSite: Al (2.359, 2.359, 2.359) [0.5, 0.5, 0.5], PeriodicSite: C (0.0, 0.0, 0.0) [0.0, 0.0, 0.0]]",105.07059938012432,"[Element Lu, Element Lu, Element Lu, Element Al, Element C]",True,False,-0.48200267149999976,0.0,0.0
1366,mp,mp-37214.cif,Mn1 Pb1 O3,MnPbO3,Pm-3m,3.914633,3.914633,3.914633,90.0,90.0,90.0,"(True, True, True)","[PeriodicSite: Mn (1.957, 1.957, 1.957) [0.5, 0.5, 0.5], PeriodicSite: Pb (0.0, 0.0, 0.0) [0.0, 0.0, 0.0], PeriodicSite: O (0.0, 1.957, 1.957) [0.0, 0.5, 0.5], PeriodicSite: O (1.957, 0.0, 1.957) [0.5, 0.0, 0.5], PeriodicSite: O (1.957, 1.957, 0.0) [0.5, 0.5, 0.0]]",59.98921218214787,"[Element Mn, Element Pb, Element O, Element O, Element O]",False,True,-1.6021172288362073,0.11387471988462305,0.0
1367,mp,mp-7986.cif,Ca1 Sn1 O3,CaSnO3,Pm-3m,4.066424,4.066424,4.066424,90.0,90.0,90.0,"(True, True, True)","[PeriodicSite: Ca (0.0, 0.0, 0.0) [0.0, 0.0, 0.0], PeriodicSite: Sn (2.033, 2.033, 2.033) [0.5, 0.5, 0.5], PeriodicSite: O (0.0, 2.033, 2.033) [0.0, 0.5, 0.5], PeriodicSite: O (2.033, 2.033, 0.0) [0.5, 0.5, 0.0], PeriodicSite: O (2.033, 0.0, 2.033) [0.5, 0.0, 0.5]]",67.24159084581586,"[Element Ca, Element Sn, Element O, Element O, Element O]",False,False,-2.485227970249999,0.19521968200000117,1.3904999999999994
1368,mp,mp-1207119.cif,Ce1 Si1 Pt3,CeSiPt3,P4mm,4.07683441,4.07683441,5.49257428,90.0,90.0,90.0,"(True, True, True)","[PeriodicSite: Ce (2.038, 2.038, 3.964) [0.5, 0.5, 0.7218], PeriodicSite: Si (0.0, 0.0, 0.05944) [0.0, -0.0, 0.01082], PeriodicSite: Pt (2.038, 0.0, 1.306) [0.5, -0.0, 0.2378], PeriodicSite: Pt (0.0, 2.038, 1.306) [-0.0, 0.5, 0.2378], PeriodicSite: Pt (0.0, 0.0, 3.253) [-0.0, 0.0, 0.5923]]",91.28976367162481,"[Element Ce, Element Si, Element Pt, Element Pt, Element Pt]",True,True,-1.0407724009999995,0.0,0.0