,provider,id,Full_Formula,formula,space_group,a_lattice_param,b_lattice_param,c_lattice_param,aplha_degree,beta_degree,gamma_degree,pbc,sits,volume,species_at_sites,is_stable,is_magnetic,formation_energy,energy_above_hull,band_gap
933,mp,mp-1100334.cif,Ca1 Sn1 S3,CaSnS3,Amm2,3.922771,5.821185788383411,5.821185788383411,91.80996880759902,90.0,90.0,"(True, True, True)","[PeriodicSite: Ca (0.0, -4.051, 1.696) [0.0, 0.2971, 0.7029], PeriodicSite: Sn (-1.961, -4.051, -3.266) [0.5, 0.8906, 0.1094], PeriodicSite: S (-1.961, -4.051, -0.4119) [0.5, 0.5493, 0.4507], PeriodicSite: S (-1.961, -6.447, -1.016) [0.5, 0.9173, 0.6742], PeriodicSite: S (-1.961, -1.655, -1.016) [0.5, 0.3258, 0.08271]]",132.86149795375115,"[Element Ca, Element Sn, Element S, Element S, Element S]",False,False,-0.9129473568750001,0.47527811724999847,0.0
934,mp,mp-1013691.cif,Ba3 Bi1 P1,Ba3BiP,Pm-3m,6.142485,6.142485,6.142485,90.0,90.0,90.0,"(True, True, True)","[PeriodicSite: Ba (0.0, 3.071, 3.071) [0.0, 0.5, 0.5], PeriodicSite: Ba (3.071, 0.0, 3.071) [0.5, 0.0, 0.5], PeriodicSite: Ba (3.071, 3.071, 0.0) [0.5, 0.5, 0.0], PeriodicSite: Bi (0.0, 0.0, 0.0) [0.0, 0.0, 0.0], PeriodicSite: P (3.071, 3.071, 3.071) [0.5, 0.5, 0.5]]",231.7567082809899,"[Element Ba, Element Ba, Element Ba, Element Bi, Element P]",False,False,-0.8554276866666661,0.10101950491666356,0.0
935,mp,mp-10198.cif,Mn3 Pd1 N1,Mn3PdN,Pm-3m,3.94285,3.94285,3.94285,90.0,90.0,90.0,"(True, True, True)","[PeriodicSite: Mn (0.0, 1.971, 1.971) [0.0, 0.5, 0.5], PeriodicSite: Mn (1.971, 1.971, 0.0) [0.5, 0.5, 0.0], PeriodicSite: Mn (1.971, 0.0, 1.971) [0.5, 0.0, 0.5], PeriodicSite: Pd (0.0, 0.0, 0.0) [0.0, 0.0, 0.0], PeriodicSite: N (1.971, 1.971, 1.971) [0.5, 0.5, 0.5]]",61.29580681109912,"[Element Mn, Element Mn, Element Mn, Element Pd, Element N]",False,True,-0.30100612375862,0.022875056000001948,0.0
936,mp,mp-1183977.cif,Cs1 Ti1 O3,CsTiO3,Pm-3m,4.106981,4.106981,4.106981,90.0,90.0,90.0,"(True, True, True)","[PeriodicSite: Cs (0.0, 0.0, 0.0) [0.0, 0.0, 0.0], PeriodicSite: Ti (2.053, 2.053, 2.053) [0.5, 0.5, 0.5], PeriodicSite: O (2.053, 2.053, 0.0) [0.5, 0.5, 0.0], PeriodicSite: O (2.053, 0.0, 2.053) [0.5, 0.0, 0.5], PeriodicSite: O (0.0, 2.053, 2.053) [0.0, 0.5, 0.5]]",69.27365160285488,"[Element Cs, Element Ti, Element O, Element O, Element O]",False,True,-2.3620244935028736,0.3486867383333401,0.0
937,mp,mp-1183997.cif,Cs1 Th1 O3,CsThO3,Pm-3m,4.575334,4.575334,4.575334,90.0,90.0,90.0,"(True, True, True)","[PeriodicSite: Cs (0.0, 0.0, 0.0) [0.0, 0.0, 0.0], PeriodicSite: Th (2.288, 2.288, 2.288) [0.5, 0.5, 0.5], PeriodicSite: O (2.288, 2.288, 0.0) [0.5, 0.5, 0.0], PeriodicSite: O (2.288, 0.0, 2.288) [0.5, 0.0, 0.5], PeriodicSite: O (0.0, 2.288, 2.288) [0.0, 0.5, 0.5]]",95.77858339239336,"[Element Cs, Element Th, Element O, Element O, Element O]",False,True,-2.9671082988362065,0.14653356200000012,0.0
938,mp,mp-1069270.cif,Zn1 Ni3 N1,ZnNi3N,Pm-3m,3.72701343,3.72701343,3.72701343,90.0,90.0,90.0,"(True, True, True)","[PeriodicSite: Zn (0.0, 0.0, 0.0) [-0.0, -0.0, -0.0], PeriodicSite: Ni (0.0, 1.864, 1.864) [-0.0, 0.5, 0.5], PeriodicSite: Ni (1.864, 1.864, 0.0) [0.5, 0.5, -0.0], PeriodicSite: Ni (1.864, 0.0, 1.864) [0.5, -0.0, 0.5], PeriodicSite: N (1.864, 1.864, 1.864) [0.5, 0.5, 0.5]]",51.77056123443007,"[Element Zn, Element Ni, Element Ni, Element Ni, Element N]",True,False,-0.22090197699999975,0.0,0.0
939,mp,mp-1070440.cif,V1 Pb1 O3,VPbO3,Pm-3m,3.932572,3.932572,3.932572,90.0,90.0,90.0,"(True, True, True)","[PeriodicSite: V (1.966, 1.966, 1.966) [0.5, 0.5, 0.5], PeriodicSite: Pb (0.0, 0.0, 0.0) [0.0, 0.0, 0.0], PeriodicSite: O (0.0, 1.966, 1.966) [0.0, 0.5, 0.5], PeriodicSite: O (1.966, 1.966, 0.0) [0.5, 0.5, 0.0], PeriodicSite: O (1.966, 0.0, 1.966) [0.5, 0.0, 0.5]]",60.81770785843361,"[Element V, Element Pb, Element O, Element O, Element O]",False,True,-2.0129176652500007,0.12451647231249474,0.0
940,mp,mp-1094009.cif,Y1 Ag1 O3,YAgO3,Pm-3m,4.426715,4.426715,4.426715,90.0,90.0,90.0,"(True, True, True)","[PeriodicSite: Y (2.213, 2.213, 2.213) [0.5, 0.5, 0.5], PeriodicSite: Ag (0.0, 0.0, 0.0) [0.0, 0.0, 0.0], PeriodicSite: O (2.213, 0.0, 2.213) [0.5, 0.0, 0.5], PeriodicSite: O (0.0, 2.213, 2.213) [0.0, 0.5, 0.5], PeriodicSite: O (2.213, 2.213, 0.0) [0.5, 0.5, 0.0]]",86.74504699043106,"[Element Y, Element Ag, Element O, Element O, Element O]",False,True,-1.5420251159166676,0.6335737709166676,0.0
941,mp,mp-1184164.cif,Er1 Ga1 O3,ErGaO3,Pm-3m,3.818299,3.818299,3.818299,90.0,90.0,90.0,"(True, True, True)","[PeriodicSite: Er (0.0, 0.0, 0.0) [0.0, 0.0, 0.0], PeriodicSite: Ga (1.909, 1.909, 1.909) [0.5, 0.5, 0.5], PeriodicSite: O (1.909, 1.909, 0.0) [0.5, 0.5, 0.0], PeriodicSite: O (1.909, 0.0, 1.909) [0.5, 0.0, 0.5], PeriodicSite: O (0.0, 1.909, 1.909) [0.0, 0.5, 0.5]]",55.66853613625379,"[Element Er, Element Ga, Element O, Element O, Element O]",False,False,-2.81638009475,0.3826839682999923,2.9153000000000002
942,mp,mp-1206878.cif,Tb3 Ga1 C1,Tb3GaC,Pm-3m,4.87141646,4.87141646,4.87141646,90.0,90.0,90.0,"(True, True, True)","[PeriodicSite: Tb (2.436, 0.0, 0.0) [0.5, -0.0, -0.0], PeriodicSite: Tb (0.0, 2.436, 0.0) [-0.0, 0.5, -0.0], PeriodicSite: Tb (0.0, 0.0, 2.436) [-0.0, 0.0, 0.5], PeriodicSite: Ga (2.436, 2.436, 2.436) [0.5, 0.5, 0.5], PeriodicSite: C (0.0, 0.0, 0.0) [-0.0, 0.0, -0.0]]",115.60211443626791,"[Element Tb, Element Tb, Element Tb, Element Ga, Element C]",True,False,-0.4165621349999995,0.0,0.0
943,mp,mp-1096764.cif,Ca3 Sb1 P1,Ca3SbP,Pm-3m,5.736281,5.736281,5.736281,90.0,90.0,90.0,"(True, True, True)","[PeriodicSite: Ca (0.0, 2.868, 2.868) [0.0, 0.5, 0.5], PeriodicSite: Ca (2.868, 0.0, 2.868) [0.5, 0.0, 0.5], PeriodicSite: Ca (2.868, 2.868, 0.0) [0.5, 0.5, 0.0], PeriodicSite: Sb (2.868, 2.868, 2.868) [0.5, 0.5, 0.5], PeriodicSite: P (0.0, 0.0, 0.0) [0.0, 0.0, 0.0]]",188.75186574451106,"[Element Ca, Element Ca, Element Ca, Element Sb, Element P]",False,False,-0.3174130846666664,0.70439176,0.0
944,mp,mp-1016874.cif,Si1 Hg1 O3,SiHgO3,Pm-3m,3.664827,3.664827,3.664827,90.0,90.0,90.0,"(True, True, True)","[PeriodicSite: Si (1.832, 1.832, 1.832) [0.5, 0.5, 0.5], PeriodicSite: Hg (0.0, 0.0, 0.0) [0.0, 0.0, 0.0], PeriodicSite: O (1.832, 1.832, 0.0) [0.5, 0.5, 0.0], PeriodicSite: O (1.832, 0.0, 1.832) [0.5, 0.0, 0.5], PeriodicSite: O (0.0, 1.832, 1.832) [0.0, 0.5, 0.5]]",49.22213362928917,"[Element Si, Element Hg, Element O, Element O, Element O]",False,False,-1.7220104542500003,0.4942845854999973,0.0
945,mp,mp-1111868.cif,K1 Au1 F3,KAuF3,Pm-3m,4.4844,4.4844,4.4844,90.0,90.0,90.0,"(True, True, True)","[PeriodicSite: K (2.242, 2.242, 2.242) [0.5, 0.5, 0.5], PeriodicSite: Au (0.0, 0.0, 0.0) [0.0, 0.0, 0.0], PeriodicSite: F (2.242, 0.0, 0.0) [0.5, 0.0, 0.0], PeriodicSite: F (0.0, 0.0, 2.242) [0.0, 0.0, 0.5], PeriodicSite: F (0.0, 2.242, 0.0) [0.0, 0.5, 0.0]]",90.180581563584,"[Element K, Element Au, Element F, Element F, Element F]",False,False,-1.8906910381,0.16071159999999995,0.0
946,mp,mp-1076633.cif,K1 V1 O3,KVO3,Pm-3m,3.8531,3.8531,3.8531,90.0,90.0,90.0,"(True, True, True)","[PeriodicSite: K (1.927, 1.927, 1.927) [0.5, 0.5, 0.5], PeriodicSite: V (0.0, 0.0, 0.0) [0.0, 0.0, 0.0], PeriodicSite: O (1.927, 0.0, 0.0) [0.5, 0.0, 0.0], PeriodicSite: O (0.0, 1.927, 0.0) [0.0, 0.5, 0.0], PeriodicSite: O (0.0, 0.0, 1.927) [0.0, 0.0, 0.5]]",57.204585275290995,"[Element K, Element V, Element O, Element O, Element O]",False,False,-2.1947174878500006,0.21691129050000058,0.21860000000000035
947,mp,mp-1080231.cif,Cs1 Tl1 Cl3,CsTlCl3,P1,5.579830005640047,5.579950453242843,5.580080134618588,89.99304753947602,89.9973719731306,89.98461832520368,"(True, True, True)","[PeriodicSite: Cs (0.005827, 0.03069, 0.01055) [0.001043, 0.0055, 0.001888], PeriodicSite: Tl (2.792, 2.864, 2.807) [0.5003, 0.5133, 0.5029], PeriodicSite: Cl (0.0009335, 2.873, 2.822) [2.7e-05, 0.5151, 0.5055], PeriodicSite: Cl (2.773, 0.07552, 2.775) [0.4969, 0.01362, 0.4972], PeriodicSite: Cl (2.8, 2.86, 0.0148) [0.5018, 0.5125, 0.002483]]",173.7367636100523,"[Element Cs, Element Tl, Element Cl, Element Cl, Element Cl]",False,False,-1.6562699602528732,0.026384845000000823,0.0
948,mp,mp-1186400.cif,Pa1 Co1 O3,PaCoO3,Pm-3m,3.782153,3.782153,3.782153,90.0,90.0,90.0,"(True, True, True)","[PeriodicSite: Pa (0.0, 0.0, 0.0) [0.0, 0.0, 0.0], PeriodicSite: Co (1.891, 1.891, 1.891) [0.5, 0.5, 0.5], PeriodicSite: O (1.891, 1.891, 0.0) [0.5, 0.5, 0.0], PeriodicSite: O (1.891, 0.0, 1.891) [0.5, 0.0, 0.5], PeriodicSite: O (0.0, 1.891, 1.891) [0.0, 0.5, 0.5]]",54.1024933511181,"[Element Pa, Element Co, Element O, Element O, Element O]",False,True,-2.3037865382500002,0.6302286234999972,0.0
949,mp,mp-1219024.cif,Sm1 Ga3 Pd1,SmGa3Pd,I-4m2,6.128122030070497,6.128122030070497,6.128122030070497,140.2990542473614,140.2990542473614,57.399507788965906,"(True, True, True)","[PeriodicSite: Sm (0.0, 0.0, 0.0) [-0.0, -0.0, -0.0], PeriodicSite: Ga (0.0, 0.0, 6.599) [0.6138, 0.6138, -0.0], PeriodicSite: Ga (0.0, 0.0, 4.151) [0.3862, 0.3862, 0.0], PeriodicSite: Ga (-2.22e-16, 2.081, 2.688) [0.75, 0.25, 0.5], PeriodicSite: Pd (2.081, -2.22e-16, 2.688) [0.25, 0.75, 0.5]]",93.10332644013087,"[Element Sm, Element Ga, Element Ga, Element Ga, Element Pd]",True,False,-0.6789751894999995,0.0,0.0
950,mp,mp-10133.cif,Sc3 B1 Pb1,Sc3BPb,Pm-3m,4.67792943,4.67792943,4.67792943,90.0,90.0,90.0,"(True, True, True)","[PeriodicSite: Sc (2.339, 0.0, 2.339) [0.5, -0.0, 0.5], PeriodicSite: Sc (0.0, 2.339, 2.339) [-0.0, 0.5, 0.5], PeriodicSite: Sc (2.339, 2.339, 0.0) [0.5, 0.5, -0.0], PeriodicSite: B (2.339, 2.339, 2.339) [0.5, 0.5, 0.5], PeriodicSite: Pb (0.0, 0.0, 0.0) [-0.0, -0.0, -0.0]]",102.36724082715106,"[Element Sc, Element Sc, Element Sc, Element B, Element Pb]",True,False,-0.5203631508333331,0.0,0.0
951,mp,mp-1185313.cif,Li1 Al1 O3,LiAlO3,Pm-3m,3.709189,3.709189,3.709189,90.0,90.0,90.0,"(True, True, True)","[PeriodicSite: Li (0.0, 0.0, 0.0) [0.0, 0.0, 0.0], PeriodicSite: Al (1.855, 1.855, 1.855) [0.5, 0.5, 0.5], PeriodicSite: O (1.855, 1.855, 0.0) [0.5, 0.5, 0.0], PeriodicSite: O (1.855, 0.0, 1.855) [0.5, 0.0, 0.5], PeriodicSite: O (0.0, 1.855, 1.855) [0.0, 0.5, 0.5]]",51.03133026460131,"[Element Li, Element Al, Element O, Element O, Element O]",False,True,-2.1054858179166667,0.3707503869821398,0.0
952,mp,mp-1099873.cif,Ca1 Cu1 O3,CaCuO3,Pm-3m,3.803636,3.803636,3.803636,90.0,90.0,90.0,"(True, True, True)","[PeriodicSite: Ca (1.902, 1.902, 1.902) [0.5, 0.5, 0.5], PeriodicSite: Cu (0.0, 0.0, 0.0) [0.0, 0.0, 0.0], PeriodicSite: O (1.902, 0.0, 0.0) [0.5, 0.0, 0.0], PeriodicSite: O (0.0, 1.902, 0.0) [0.0, 0.5, 0.0], PeriodicSite: O (0.0, 0.0, 1.902) [0.0, 0.0, 0.5]]",55.02966228172412,"[Element Ca, Element Cu, Element O, Element O, Element O]",False,False,-1.70121123725,0.16247519337500105,0.0
953,mp,mp-1017446.cif,Hf1 Cd1 O3,HfCdO3,Pm-3m,4.098109,4.098109,4.098109,90.0,90.0,90.0,"(True, True, True)","[PeriodicSite: Hf (2.049, 2.049, 2.049) [0.5, 0.5, 0.5], PeriodicSite: Cd (0.0, 0.0, 0.0) [0.0, 0.0, 0.0], PeriodicSite: O (2.049, 2.049, 0.0) [0.5, 0.5, 0.0], PeriodicSite: O (2.049, 0.0, 2.049) [0.5, 0.0, 0.5], PeriodicSite: O (0.0, 2.049, 2.049) [0.0, 0.5, 0.5]]",68.82568084657431,"[Element Hf, Element Cd, Element O, Element O, Element O]",False,False,-2.6782066212499998,0.2803280044999976,0.0
954,mp,mp-504715.cif,Ba1 Ti1 O3,BaTiO3,Pm-3m,4.649145,4.649145,4.649145,90.0,90.0,90.0,"(True, True, True)","[PeriodicSite: Ba (0.0, 0.0, 0.0) [0.0, 0.0, 0.0], PeriodicSite: Ti (2.325, 2.325, 2.325) [0.5, 0.5, 0.5], PeriodicSite: O (2.325, 0.0, 0.0) [0.5, 0.0, 0.0], PeriodicSite: O (0.0, 0.0, 2.325) [0.0, 0.0, 0.5], PeriodicSite: O (0.0, 2.325, 0.0) [0.0, 0.5, 0.0]]",100.48917348467371,"[Element Ba, Element Ti, Element O, Element O, Element O]",False,False,-0.41554926591666685,3.077451098,0.0
955,mp,mp-30805.cif,Sr1 Ni1 Sn3,SrNiSn3,I4mm,4.744507336730136,4.744506944200838,6.408337730342691,111.72685925968416,111.72686262112555,90.00001473276782,"(True, True, True)","[PeriodicSite: Sr (3.707, 4.354, 2.885) [0.9996, 0.9996, 0.9991], PeriodicSite: Ni (2.441, 2.867, -0.2841) [0.6587, 0.6587, 0.3175], PeriodicSite: Sn (1.598, 1.878, 4.002) [0.4305, 0.4305, 0.861], PeriodicSite: Sn (3.13, 1.089, 1.441) [0.7496, 0.2496, 0.4992], PeriodicSite: Sn (0.5754, 3.263, 1.441) [0.2496, 0.7496, 0.4992]]",122.90653881942511,"[Element Sr, Element Ni, Element Sn, Element Sn, Element Sn]",True,False,-0.4356997063333338,0.0,0.0
956,mp,mp-1226631.cif,Ce1 Ga3 Au1,CeGa3Au,Cm,4.339874231800874,4.339777339154322,6.163721617977426,69.54943372098188,69.54761993667654,90.14533346480157,"(True, True, True)","[PeriodicSite: Ce (4.339, 4.339, 0.1477) [0.9861, 0.9862, 0.02987], PeriodicSite: Ga (4.342, 2.153, 2.667) [0.7518, 0.248, 0.4995], PeriodicSite: Ga (2.153, 4.342, 2.666) [0.2481, 0.7518, 0.4995], PeriodicSite: Ga (2.173, 2.173, 1.161) [0.3926, 0.3927, 0.2179], PeriodicSite: Au (4.323, 4.323, 4.022) [0.6214, 0.6213, 0.7532]]",100.88274022461835,"[Element Ce, Element Ga, Element Ga, Element Ga, Element Au]",True,True,-0.5582564074999994,0.0,0.0
957,mp,mp-1206991.cif,Ga1 Ni3 C1,GaNi3C,Pm-3m,3.775591,3.775591,3.775591,90.0,90.0,90.0,"(True, True, True)","[PeriodicSite: Ga (1.888, 1.888, 1.888) [0.5, 0.5, 0.5], PeriodicSite: Ni (1.888, 0.0, 0.0) [0.5, 0.0, 0.0], PeriodicSite: Ni (0.0, 1.888, 0.0) [0.0, 0.5, 0.0], PeriodicSite: Ni (0.0, 0.0, 1.888) [0.0, 0.0, 0.5], PeriodicSite: C (0.0, 0.0, 0.0) [0.0, 0.0, 0.0]]",53.82137968893875,"[Element Ga, Element Ni, Element Ni, Element Ni, Element C]",False,False,-0.07501512699999964,0.1577100584999993,0.0
958,mp,mp-21206.cif,Yb3 Ga1 C1,Yb3GaC,Pm-3m,4.977645,4.977645,4.977645,90.0,90.0,90.0,"(True, True, True)","[PeriodicSite: Yb (2.489, 0.0, 2.489) [0.5, 0.0, 0.5], PeriodicSite: Yb (2.489, 2.489, 0.0) [0.5, 0.5, 0.0], PeriodicSite: Yb (0.0, 2.489, 2.489) [0.0, 0.5, 0.5], PeriodicSite: Ga (0.0, 0.0, 0.0) [0.0, 0.0, 0.0], PeriodicSite: C (2.489, 2.489, 2.489) [0.5, 0.5, 0.5]]",123.33086001855261,"[Element Yb, Element Yb, Element Yb, Element Ga, Element C]",False,False,0.06715705499999984,0.3177384633333338,0.0
959,mp,mp-1206805.cif,Mn3 Sb1 N1,Mn3SbN,Pm-3m,3.912712,3.912712,3.912712,90.0,90.0,90.0,"(True, True, True)","[PeriodicSite: Mn (0.0, 1.956, 0.0) [0.0, 0.5, 0.0], PeriodicSite: Mn (1.956, 0.0, 0.0) [0.5, 0.0, 0.0], PeriodicSite: Mn (0.0, 0.0, 1.956) [0.0, 0.0, 0.5], PeriodicSite: Sb (1.956, 1.956, 1.956) [0.5, 0.5, 0.5], PeriodicSite: N (0.0, 0.0, 0.0) [0.0, 0.0, 0.0]]",59.90094127503973,"[Element Mn, Element Mn, Element Mn, Element Sb, Element N]",False,True,-0.1552440237586211,0.13757563550000107,0.0
960,mp,mp-547864.cif,Cd1 C1 O3,CdCO3,R-3m,4.143972673313495,4.143972673313495,4.143972778769668,93.46523889566578,93.46523889566578,93.46524145185784,"(True, True, True)","[PeriodicSite: Cd (0.0, 0.0, 0.0) [0.0, 0.0, 0.0], PeriodicSite: C (2.658, 0.0, 2.064) [0.5, 0.5, 0.5], PeriodicSite: O (1.42, -1.509, 0.0) [0.5, 0.0, 0.0], PeriodicSite: O (-0.1827, 0.0, 2.064) [0.0, 0.0, 0.5], PeriodicSite: O (1.42, 1.509, 0.0) [0.0, 0.5, 0.0]]",70.7555627166026,"[Element Cd, Element C, Element O, Element O, Element O]",False,False,1.4696892312499998,3.2333036509999995,0.0
961,mp,mp-19845.cif,Ti1 Pb1 O3,TiPbO3,Pm-3m,3.969049,3.969049,3.969049,90.0,90.0,90.0,"(True, True, True)","[PeriodicSite: Ti (1.985, 1.985, 1.985) [0.5, 0.5, 0.5], PeriodicSite: Pb (0.0, 0.0, 0.0) [0.0, 0.0, 0.0], PeriodicSite: O (1.985, 0.0, 1.985) [0.5, 0.0, 0.5], PeriodicSite: O (1.985, 1.985, 0.0) [0.5, 0.5, 0.0], PeriodicSite: O (0.0, 1.985, 1.985) [0.0, 0.5, 0.5]]",62.52581792285582,"[Element Ti, Element Pb, Element O, Element O, Element O]",False,False,-2.690131415916666,0.0412217460000015,1.585
962,mp,mp-4593.cif,Mn3 Al1 C1,Mn3AlC,Pm-3m,3.96073285,3.96077457,3.96073517,90.0,90.0,90.0,"(True, True, True)","[PeriodicSite: Mn (0.0, 1.98, 1.98) [0.0, 0.5, 0.5], PeriodicSite: Mn (1.98, 1.98, 0.0) [0.5, 0.5, -0.0], PeriodicSite: Mn (1.98, 0.0, 1.98) [0.5, -0.0, 0.5], PeriodicSite: Al (0.0, 0.0, 0.0) [-0.0, -0.0, -0.0], PeriodicSite: C (1.98, 1.98, 1.98) [0.5, 0.5, 0.5]]",62.134310036141514,"[Element Mn, Element Mn, Element Mn, Element Al, Element C]",True,True,-0.19157067825862129,0.0,0.0
963,mp,mp-1424898.cif,Y1 Bi1 O3,YBiO3,Pm-3m,4.408542,4.408542,4.408542,90.0,90.0,90.0,"(True, True, True)","[PeriodicSite: Y (0.0, 0.0, 0.0) [0.0, 0.0, 0.0], PeriodicSite: Bi (2.204, 2.204, 2.204) [0.5, 0.5, 0.5], PeriodicSite: O (2.204, 2.204, 0.0) [0.5, 0.5, 0.0], PeriodicSite: O (2.204, 0.0, 2.204) [0.5, 0.0, 0.5], PeriodicSite: O (0.0, 2.204, 2.204) [0.0, 0.5, 0.5]]",85.68108313135833,"[Element Y, Element Bi, Element O, Element O, Element O]",False,False,-1.717916576583334,1.0990794818749992,0.0
964,mp,mp-22540.cif,Ce1 Ga1 O3,CeGaO3,Pm-3m,4.413467,4.413467,4.413467,90.0,90.0,90.0,"(True, True, True)","[PeriodicSite: Ce (2.207, 2.207, 2.207) [0.5, 0.5, 0.5], PeriodicSite: Ga (0.0, 0.0, 0.0) [0.0, 0.0, 0.0], PeriodicSite: O (0.0, 2.207, 2.207) [0.0, 0.5, 0.5], PeriodicSite: O (2.207, 0.0, 2.207) [0.5, 0.0, 0.5], PeriodicSite: O (2.207, 2.207, 0.0) [0.5, 0.5, 0.0]]",85.9685597555511,"[Element Ce, Element Ga, Element O, Element O, Element O]",False,True,-2.24107798175,0.8752421889000006,0.0
965,mp,mp-3769.cif,Er1 B1 Rh3,ErBRh3,Pm-3m,4.15895118,4.15895118,4.15895118,90.0,90.0,90.0,"(True, True, True)","[PeriodicSite: Er (0.0, 0.0, 0.0) [-0.0, -0.0, -0.0], PeriodicSite: B (2.079, 2.079, 2.079) [0.5, 0.5, 0.5], PeriodicSite: Rh (0.0, 2.079, 2.079) [-0.0, 0.5, 0.5], PeriodicSite: Rh (2.079, 2.079, 0.0) [0.5, 0.5, -0.0], PeriodicSite: Rh (2.079, 0.0, 2.079) [0.5, -0.0, 0.5]]",71.9368583489622,"[Element Er, Element B, Element Rh, Element Rh, Element Rh]",True,True,-0.8142960758333331,0.0,0.0
966,mp,mp-582028.cif,Mn3 Rh1 N1,Mn3RhN,Pm-3m,3.901408,3.901408,3.901408,90.0,90.0,90.0,"(True, True, True)","[PeriodicSite: Mn (1.951, 1.951, 0.0) [0.5, 0.5, 0.0], PeriodicSite: Mn (1.951, 0.0, 1.951) [0.5, 0.0, 0.5], PeriodicSite: Mn (0.0, 1.951, 1.951) [0.0, 0.5, 0.5], PeriodicSite: Rh (0.0, 0.0, 0.0) [0.0, 0.0, 0.0], PeriodicSite: N (1.951, 1.951, 1.951) [0.5, 0.5, 0.5]]",59.38327023762011,"[Element Mn, Element Mn, Element Mn, Element Rh, Element N]",False,True,-0.22893584775862194,0.08466802849999766,0.0
967,mp,mp-1218236.cif,Sr1 In3 Au1,SrIn3Au,I4mm,7.0469297107461495,7.0469297107461495,7.0469297107461495,141.89938365739354,141.89938365739354,54.98038974109413,"(True, True, True)","[PeriodicSite: Sr (0.0, 0.0, 12.48) [0.9979, 0.9979, 0.0], PeriodicSite: In (2.3, 2.22e-16, 2.888) [0.231, 0.731, 0.5], PeriodicSite: In (2.22e-16, 2.3, 2.888) [0.731, 0.231, 0.5], PeriodicSite: In (0.0, 0.0, 4.788) [0.383, 0.383, -0.0], PeriodicSite: Au (0.0, 0.0, 7.487) [0.5988, 0.5988, -0.0]]",132.28878233146276,"[Element Sr, Element In, Element In, Element In, Element Au]",True,False,-0.41919690733333326,0.0,0.0
968,mp,mp-3163.cif,Ba1 Sn1 O3,BaSnO3,Pm-3m,4.14346542,4.14346542,4.14346542,90.0,90.0,90.0,"(True, True, True)","[PeriodicSite: Ba (2.072, 2.072, 2.072) [0.5, 0.5, 0.5], PeriodicSite: Sn (0.0, 0.0, 0.0) [-0.0, -0.0, -0.0], PeriodicSite: O (0.0, 2.072, 0.0) [0.0, 0.5, 0.0], PeriodicSite: O (0.0, 0.0, 2.072) [-0.0, 0.0, 0.5], PeriodicSite: O (2.072, 0.0, 0.0) [0.5, 0.0, 0.0]]",71.13628093297905,"[Element Ba, Element Sn, Element O, Element O, Element O]",True,False,-2.5882316482499994,0.0,0.37239999999999984
969,mp,mp-19818.cif,Dy3 Pb1 C1,Dy3PbC,Pm-3m,4.89301389,4.89301389,4.89301492,90.0,90.0,90.0,"(True, True, True)","[PeriodicSite: Dy (2.447, 0.0, 2.447) [0.5, -0.0, 0.5], PeriodicSite: Dy (0.0, 2.447, 2.447) [-0.0, 0.5, 0.5], PeriodicSite: Dy (2.447, 2.447, 0.0) [0.5, 0.5, 0.0], PeriodicSite: Pb (0.0, 0.0, 0.0) [0.0, 0.0, 0.0], PeriodicSite: C (2.447, 2.447, 2.447) [0.5, 0.5, 0.5]]",117.14653225984434,"[Element Dy, Element Dy, Element Dy, Element Pb, Element C]",True,False,-0.5387299634999998,0.0,0.0