,provider,id,Full_Formula,formula,space_group,a_lattice_param,b_lattice_param,c_lattice_param,aplha_degree,beta_degree,gamma_degree,pbc,sits,volume,species_at_sites,is_stable,is_magnetic,formation_energy,energy_above_hull,band_gap
336,mp,mp-1187481.cif,Tl1 Ga1 O3,TlGaO3,Pm-3m,3.908875,3.908875,3.908875,90.0,90.0,90.0,"(True, True, True)","[PeriodicSite: Tl (0.0, 0.0, 0.0) [0.0, 0.0, 0.0], PeriodicSite: Ga (1.954, 1.954, 1.954) [0.5, 0.5, 0.5], PeriodicSite: O (1.954, 1.954, 0.0) [0.5, 0.5, 0.0], PeriodicSite: O (1.954, 0.0, 1.954) [0.5, 0.0, 0.5], PeriodicSite: O (0.0, 1.954, 1.954) [0.0, 0.5, 0.5]]",59.724888506857425,"[Element Tl, Element Ga, Element O, Element O, Element O]",False,False,-1.2571412674166673,0.43010489100000004,0.0
337,mp,mp-1076638.cif,Rb1 V1 O3,RbVO3,Pm-3m,3.915187,3.915187,3.915187,90.0,90.0,90.0,"(True, True, True)","[PeriodicSite: Rb (1.958, 1.958, 1.958) [0.5, 0.5, 0.5], PeriodicSite: V (0.0, 0.0, 0.0) [0.0, 0.0, 0.0], PeriodicSite: O (1.958, 0.0, 0.0) [0.5, 0.0, 0.0], PeriodicSite: O (0.0, 1.958, 0.0) [0.0, 0.5, 0.0], PeriodicSite: O (0.0, 0.0, 1.958) [0.0, 0.0, 0.5]]",60.014684858942445,"[Element Rb, Element V, Element O, Element O, Element O]",False,False,-2.052987348750001,0.3573935849999996,0.24980000000000002
338,mp,mp-1069658.cif,Eu1 Ge3 Rh1,EuGe3Rh,I4mm,5.922378063150951,5.922378063150951,5.922378063150951,136.28460572776453,136.28460572776453,63.540635924253266,"(True, True, True)","[PeriodicSite: Eu (0.0, 0.0, 0.01971) [0.001957, 0.001957, -0.0], PeriodicSite: Ge (2.205, 0.0, 2.46) [0.2443, 0.7443, 0.5], PeriodicSite: Ge (0.0, 2.205, 2.46) [0.7443, 0.2443, 0.5], PeriodicSite: Ge (0.0, 0.0, 5.906) [0.5865, 0.5865, -0.0], PeriodicSite: Rh (0.0, 0.0, 3.512) [0.3488, 0.3488, -0.0]]",97.91384627319637,"[Element Eu, Element Ge, Element Ge, Element Ge, Element Rh]",True,True,-0.6373916049999998,0.0,0.0
339,mp,mp-1016821.cif,Ba1 Si1 O3,BaSiO3,Pm-3m,3.836937,3.836937,3.836937,90.0,90.0,90.0,"(True, True, True)","[PeriodicSite: Ba (0.0, 0.0, 0.0) [0.0, 0.0, 0.0], PeriodicSite: Si (1.918, 1.918, 1.918) [0.5, 0.5, 0.5], PeriodicSite: O (1.918, 1.918, 0.0) [0.5, 0.5, 0.0], PeriodicSite: O (1.918, 0.0, 1.918) [0.5, 0.0, 0.5], PeriodicSite: O (0.0, 1.918, 1.918) [0.0, 0.5, 0.5]]",56.48771473314591,"[Element Ba, Element Si, Element O, Element O, Element O]",False,False,-2.84350831725,0.5612682649999998,1.1441000000000008
340,mp,mp-1069538.cif,Cs1 Pb1 I3,CsPbI3,Pm-3m,6.27514229,6.27514229,6.27514229,90.0,90.0,90.0,"(True, True, True)","[PeriodicSite: Cs (3.138, 3.138, 3.138) [0.5, 0.5, 0.5], PeriodicSite: Pb (0.0, 0.0, 0.0) [-0.0, -0.0, -0.0], PeriodicSite: I (0.0, 0.0, 3.138) [0.0, -0.0, 0.5], PeriodicSite: I (0.0, 3.138, 0.0) [0.0, 0.5, 0.0], PeriodicSite: I (3.138, 0.0, 0.0) [0.5, 0.0, 0.0]]",247.0988555291859,"[Element Cs, Element Pb, Element I, Element I, Element I]",False,False,-1.271080199586207,0.025049343999999252,1.4785000000000001
341,mp,mp-1185544.cif,Cs1 Tl1 O3,CsTlO3,Pm-3m,4.535003,4.535003,4.535003,90.0,90.0,90.0,"(True, True, True)","[PeriodicSite: Cs (0.0, 0.0, 0.0) [0.0, 0.0, 0.0], PeriodicSite: Tl (2.268, 2.268, 2.268) [0.5, 0.5, 0.5], PeriodicSite: O (2.268, 2.268, 0.0) [0.5, 0.5, 0.0], PeriodicSite: O (2.268, 0.0, 2.268) [0.5, 0.0, 0.5], PeriodicSite: O (0.0, 2.268, 2.268) [0.0, 0.5, 0.5]]",93.26801547114742,"[Element Cs, Element Tl, Element O, Element O, Element O]",False,True,-0.7599737095028736,0.35417276116666674,0.0
342,mp,mp-1018639.cif,Ti1 Sn1 O3,TiSnO3,Pm-3m,3.950731,3.950731,3.950731,90.0,90.0,90.0,"(True, True, True)","[PeriodicSite: Ti (1.975, 1.975, 1.975) [0.5, 0.5, 0.5], PeriodicSite: Sn (0.0, 0.0, 0.0) [0.0, 0.0, 0.0], PeriodicSite: O (0.0, 1.975, 1.975) [0.0, 0.5, 0.5], PeriodicSite: O (1.975, 1.975, 0.0) [0.5, 0.5, 0.0], PeriodicSite: O (1.975, 0.0, 1.975) [0.5, 0.0, 0.5]]",61.66409761506848,"[Element Ti, Element Sn, Element O, Element O, Element O]",False,False,-2.5973521609166674,0.15802268899999916,1.0452000000000004
343,mp,mp-1070572.cif,Th1 Si3 Os1,ThSi3Os,I4mm,5.810960072081871,5.810960072081871,5.810960072081871,137.18873077875762,137.18873077875762,62.14779519746217,"(True, True, True)","[PeriodicSite: Th (0.0, 0.0, 9.897) [0.9942, 0.9942, -0.0], PeriodicSite: Si (0.0, 0.0, 4.166) [0.4185, 0.4185, 0.0], PeriodicSite: Si (2.121, 0.0, 2.619) [0.2631, 0.7631, 0.5], PeriodicSite: Si (0.0, 2.121, 2.619) [0.7631, 0.2631, 0.5], PeriodicSite: Os (0.0, 0.0, 6.52) [0.655, 0.655, 0.0]]",89.5452601215469,"[Element Th, Element Si, Element Si, Element Si, Element Os]",True,False,-0.634940426,0.0,0.0
344,mp,mp-1186755.cif,Sr1 Ta1 O3,SrTaO3,Pm-3m,4.066878,4.066878,4.066878,90.0,90.0,90.0,"(True, True, True)","[PeriodicSite: Sr (0.0, 0.0, 0.0) [0.0, 0.0, 0.0], PeriodicSite: Ta (2.033, 2.033, 2.033) [0.5, 0.5, 0.5], PeriodicSite: O (2.033, 2.033, 0.0) [0.5, 0.5, 0.0], PeriodicSite: O (2.033, 0.0, 2.033) [0.5, 0.0, 0.5], PeriodicSite: O (0.0, 2.033, 2.033) [0.0, 0.5, 0.5]]",67.26411512562386,"[Element Sr, Element Ta, Element O, Element O, Element O]",False,False,-3.282068082583334,0.05924081000000925,0.0
345,mp,mp-1183823.cif,Dy1 In1 O3,DyInO3,Pm-3m,4.121735,4.121735,4.121735,90.0,90.0,90.0,"(True, True, True)","[PeriodicSite: Dy (0.0, 0.0, 0.0) [0.0, 0.0, 0.0], PeriodicSite: In (2.061, 2.061, 2.061) [0.5, 0.5, 0.5], PeriodicSite: O (2.061, 2.061, 0.0) [0.5, 0.5, 0.0], PeriodicSite: O (2.061, 0.0, 2.061) [0.5, 0.0, 0.5], PeriodicSite: O (0.0, 2.061, 2.061) [0.0, 0.5, 0.5]]",70.02291696360375,"[Element Dy, Element In, Element O, Element O, Element O]",False,False,-2.30537250725,0.6987631929999996,1.5367000000000006
346,mp,mp-1183422.cif,Be1 B1 O3,BeBO3,Pm-3m,3.264797,3.264797,3.264797,90.0,90.0,90.0,"(True, True, True)","[PeriodicSite: Be (0.0, 0.0, 0.0) [0.0, 0.0, 0.0], PeriodicSite: B (1.632, 1.632, 1.632) [0.5, 0.5, 0.5], PeriodicSite: O (1.632, 1.632, 0.0) [0.5, 0.5, 0.0], PeriodicSite: O (1.632, 0.0, 1.632) [0.5, 0.0, 0.5], PeriodicSite: O (0.0, 1.632, 1.632) [0.0, 0.5, 0.5]]",34.79914295160879,"[Element Be, Element B, Element O, Element O, Element O]",False,False,-1.0013624040833335,1.639444218791681,0.0
347,mp,mp-1068588.cif,Tb1 Si3 Ir1,TbSi3Ir,I4mm,5.71228497143106,5.71228497143106,5.71228497143106,137.0817526647759,137.0817526647759,62.31228874405023,"(True, True, True)","[PeriodicSite: Tb (0.0, 0.0, 9.759) [0.9981, 0.9981, 0.0], PeriodicSite: Si (0.0, 0.0, 4.05) [0.4142, 0.4142, -0.0], PeriodicSite: Si (2.09, 2.22e-16, 2.588) [0.2647, 0.7647, 0.5], PeriodicSite: Si (2.22e-16, 2.09, 2.588) [0.7647, 0.2647, 0.5], PeriodicSite: Ir (0.0, 0.0, 6.377) [0.6522, 0.6522, -0.0]]",85.39214365496268,"[Element Tb, Element Si, Element Si, Element Si, Element Ir]",True,False,-0.7954743159999993,0.0,0.0
348,mp,mp-1187744.cif,V1 Bi1 O3,VBiO3,Pm-3m,3.939753,3.939753,3.939753,90.0,90.0,90.0,"(True, True, True)","[PeriodicSite: V (0.0, 0.0, 0.0) [0.0, 0.0, 0.0], PeriodicSite: Bi (1.97, 1.97, 1.97) [0.5, 0.5, 0.5], PeriodicSite: O (0.0, 0.0, 1.97) [0.0, 0.0, 0.5], PeriodicSite: O (0.0, 1.97, 0.0) [0.0, 0.5, 0.0], PeriodicSite: O (1.97, 0.0, 0.0) [0.5, 0.0, 0.0]]",61.15148173351132,"[Element V, Element Bi, Element O, Element O, Element O]",False,True,-1.8250998552500008,0.2737100111250017,0.0
349,mp,mp-1185387.cif,Li1 Nd1 O3,LiNdO3,Pm-3m,3.772144,3.772144,3.772144,90.0,90.0,90.0,"(True, True, True)","[PeriodicSite: Li (1.886, 1.886, 1.886) [0.5, 0.5, 0.5], PeriodicSite: Nd (0.0, 0.0, 0.0) [0.0, 0.0, 0.0], PeriodicSite: O (1.886, 1.886, 0.0) [0.5, 0.5, 0.0], PeriodicSite: O (1.886, 0.0, 1.886) [0.5, 0.0, 0.5], PeriodicSite: O (0.0, 1.886, 1.886) [0.0, 0.5, 0.5]]",53.67410237173956,"[Element Li, Element Nd, Element O, Element O, Element O]",False,True,-2.2994781534166675,0.25988814996428466,0.0
350,mp,mp-1184207.cif,Er1 Zn1 O3,ErZnO3,Pm-3m,3.827502,3.827502,3.827502,90.0,90.0,90.0,"(True, True, True)","[PeriodicSite: Er (0.0, 0.0, 0.0) [0.0, 0.0, 0.0], PeriodicSite: Zn (1.914, 1.914, 1.914) [0.5, 0.5, 0.5], PeriodicSite: O (1.914, 1.914, 0.0) [0.5, 0.5, 0.0], PeriodicSite: O (1.914, 0.0, 1.914) [0.5, 0.0, 0.5], PeriodicSite: O (0.0, 1.914, 1.914) [0.0, 0.5, 0.5]]",56.07202994545843,"[Element Er, Element Zn, Element O, Element O, Element O]",False,False,-2.28579937525,0.4597434651249994,0.0
351,mp,mp-1184949.cif,K1 Tm1 O3,KTmO3,Pm-3m,4.412421,4.412421,4.412421,90.0,90.0,90.0,"(True, True, True)","[PeriodicSite: K (0.0, 0.0, 0.0) [0.0, 0.0, 0.0], PeriodicSite: Tm (2.206, 2.206, 2.206) [0.5, 0.5, 0.5], PeriodicSite: O (2.206, 2.206, 0.0) [0.5, 0.5, 0.0], PeriodicSite: O (2.206, 0.0, 2.206) [0.5, 0.0, 0.5], PeriodicSite: O (0.0, 2.206, 2.206) [0.0, 0.5, 0.5]]",85.9074501087085,"[Element K, Element Tm, Element O, Element O, Element O]",False,True,-2.3565472951833337,0.24745524083333414,0.0
352,mp,mp-10135.cif,Yb1 B1 Pd3,YbBPd3,Pm-3m,4.23555052,4.23555052,4.23555052,90.0,90.0,90.0,"(True, True, True)","[PeriodicSite: Yb (0.0, 0.0, 0.0) [-0.0, 0.0, -0.0], PeriodicSite: B (2.118, 2.118, 2.118) [0.5, 0.5, 0.5], PeriodicSite: Pd (2.118, 0.0, 2.118) [0.5, 0.0, 0.5], PeriodicSite: Pd (0.0, 2.118, 2.118) [-0.0, 0.5, 0.5], PeriodicSite: Pd (2.118, 2.118, 0.0) [0.5, 0.5, -0.0]]",75.98530282590106,"[Element Yb, Element B, Element Pd, Element Pd, Element Pd]",True,False,-0.6578417458333334,0.0,0.0
353,mp,mp-1076932.cif,Ba1 Ti1 O3,BaTiO3,Amm2,3.7644019743849086,3.7644019743849086,8.881493,90.0,90.0,90.21449599834355,"(True, True, True)","[PeriodicSite: Ba (2.657, -2.599, 0.0) [0.9873, 0.01266, 0.0], PeriodicSite: Ti (2.657, 2.516, 4.441) [0.02832, 0.9717, 0.5], PeriodicSite: O (2.657, 0.06105, 0.0) [0.4886, 0.5114, 0.0], PeriodicSite: O (1.362, -1.267, 4.441) [0.4937, 0.01875, 0.5], PeriodicSite: O (3.952, -1.267, 4.441) [0.9812, 0.5063, 0.5]]",125.85628830095348,"[Element Ba, Element Ti, Element O, Element O, Element O]",False,False,-2.5139849959166662,0.9790153680000007,0.0
354,mp,mp-1183445.cif,Be1 Si1 O3,BeSiO3,Pm-3m,3.477388,3.477388,3.477388,90.0,90.0,90.0,"(True, True, True)","[PeriodicSite: Be (0.0, 0.0, 0.0) [0.0, 0.0, 0.0], PeriodicSite: Si (1.739, 1.739, 1.739) [0.5, 0.5, 0.5], PeriodicSite: O (1.739, 1.739, 0.0) [0.5, 0.5, 0.0], PeriodicSite: O (1.739, 0.0, 1.739) [0.5, 0.0, 0.5], PeriodicSite: O (0.0, 1.739, 1.739) [0.0, 0.5, 0.5]]",42.049366115138874,"[Element Be, Element Si, Element O, Element O, Element O]",False,False,-1.9605515582500004,1.2440033358333311,0.2690999999999999
355,mp,mp-1206413.cif,Yb1 Ru3 C1,YbRu3C,Pm-3m,4.131506,4.131506,4.131506,90.0,90.0,90.0,"(True, True, True)","[PeriodicSite: Yb (2.066, 2.066, 2.066) [0.5, 0.5, 0.5], PeriodicSite: Ru (2.066, 0.0, 0.0) [0.5, 0.0, 0.0], PeriodicSite: Ru (0.0, 2.066, 0.0) [0.0, 0.5, 0.0], PeriodicSite: Ru (0.0, 0.0, 2.066) [0.0, 0.0, 0.5], PeriodicSite: C (0.0, 0.0, 0.0) [0.0, 0.0, 0.0]]",70.5220881785817,"[Element Yb, Element Ru, Element Ru, Element Ru, Element C]",False,False,-0.0015955774999994788,0.07477037733333436,0.0
356,mp,mp-1018635.cif,Sc1 Pd3 C1,ScPd3C,Pm-3m,4.21238,4.21238,4.21238,90.0,90.0,90.0,"(True, True, True)","[PeriodicSite: Sc (0.0, 0.0, 0.0) [0.0, 0.0, 0.0], PeriodicSite: Pd (0.0, 2.106, 2.106) [0.0, 0.5, 0.5], PeriodicSite: Pd (2.106, 2.106, 0.0) [0.5, 0.5, 0.0], PeriodicSite: Pd (2.106, 0.0, 2.106) [0.5, 0.0, 0.5], PeriodicSite: C (2.106, 2.106, 2.106) [0.5, 0.5, 0.5]]",74.74508262885325,"[Element Sc, Element Pd, Element Pd, Element Pd, Element C]",False,False,-0.1852542365000005,0.4992127084999991,0.0
357,mp,mp-1094101.cif,Nd3 Pb1 N1,Nd3PbN,Pm-3m,5.02007322,5.02007322,5.02007322,90.0,90.0,90.0,"(True, True, True)","[PeriodicSite: Nd (2.51, 2.51, 0.0) [0.5, 0.5, 0.0], PeriodicSite: Nd (2.51, 0.0, 2.51) [0.5, 0.0, 0.5], PeriodicSite: Nd (0.0, 2.51, 2.51) [0.0, 0.5, 0.5], PeriodicSite: Pb (0.0, 0.0, 0.0) [0.0, -0.0, 0.0], PeriodicSite: N (2.51, 2.51, 2.51) [0.5, 0.5, 0.5]]",126.51154360060355,"[Element Nd, Element Nd, Element Nd, Element Pb, Element N]",True,False,-0.9393757455000007,0.0,0.0
358,mp,mp-1013532.cif,Sr3 As1 P1,Sr3AsP,Pm-3m,5.79,5.79,5.79,90.0,90.0,90.0,"(True, True, True)","[PeriodicSite: Sr (0.0, 2.895, 2.895) [0.0, 0.5, 0.5], PeriodicSite: Sr (2.895, 0.0, 2.895) [0.5, 0.0, 0.5], PeriodicSite: Sr (2.895, 2.895, 0.0) [0.5, 0.5, 0.0], PeriodicSite: As (2.895, 2.895, 2.895) [0.5, 0.5, 0.5], PeriodicSite: P (0.0, 0.0, 0.0) [0.0, 0.0, 0.0]]",194.104539,"[Element Sr, Element Sr, Element Sr, Element As, Element P]",False,False,-0.5753197616666668,0.4907167469166649,0.0
359,mp,mp-1206772.cif,Th1 B1 Rh3,ThBRh3,Pm-3m,4.25609694,4.25609694,4.25609694,90.0,90.0,90.0,"(True, True, True)","[PeriodicSite: Th (2.128, 2.128, 2.128) [0.5, 0.5, 0.5], PeriodicSite: B (0.0, 0.0, 0.0) [0.0, 0.0, 0.0], PeriodicSite: Rh (2.128, 0.0, 0.0) [0.5, -0.0, -0.0], PeriodicSite: Rh (0.0, 2.128, 0.0) [-0.0, 0.5, -0.0], PeriodicSite: Rh (0.0, 0.0, 2.128) [0.0, -0.0, 0.5]]",77.09647711452597,"[Element Th, Element B, Element Rh, Element Rh, Element Rh]",True,False,-0.8832719698333321,0.0,0.0
360,mp,mp-1069461.cif,Ho1 Si3 Ir1,HoSi3Ir,I4mm,5.704555446153623,5.704555446153623,5.704555446153623,137.24596555839045,137.24596555839045,62.059822574604006,"(True, True, True)","[PeriodicSite: Ho (0.0, 0.0, 9.754) [0.9977, 0.9977, 0.0], PeriodicSite: Si (0.0, 0.0, 4.052) [0.4145, 0.4145, 0.0], PeriodicSite: Si (2.079, 0.0, 2.592) [0.2651, 0.7651, 0.5], PeriodicSite: Si (0.0, 2.079, 2.592) [0.7651, 0.2651, 0.5], PeriodicSite: Ir (0.0, 0.0, 6.371) [0.6516, 0.6516, 0.0]]",84.53909359239958,"[Element Ho, Element Si, Element Si, Element Si, Element Ir]",True,False,-0.7737009839999999,0.0,0.0
361,mp,mp-1097917.cif,Tl1 Ni1 O3,TlNiO3,P1,3.786234374528471,3.7854173516733924,3.7980313656157447,89.81183947958505,89.80722818672598,90.22609065198122,"(True, True, True)","[PeriodicSite: Tl (-3.812, -3.738, -3.748) [0.9878, 0.9907, 0.9997], PeriodicSite: Ni (-1.943, -1.911, -1.914) [0.5044, 0.5065, 0.5095], PeriodicSite: O (-0.04833, -1.905, -1.891) [0.5008, 0.5039, 0.01071], PeriodicSite: O (-1.938, -0.02802, -2.015) [0.5299, 0.009112, 0.5109], PeriodicSite: O (-1.982, -2.002, -0.03093) [0.007147, 0.5298, 0.5192]]",54.43417050466772,"[Element Tl, Element Ni, Element O, Element O, Element O]",False,True,-0.6752503579166664,0.3659384218750006,0.0
362,mp,mp-1076317.cif,Mg1 Cu1 O3,MgCuO3,Pm-3m,3.731181,3.731181,3.731181,90.0,90.0,90.0,"(True, True, True)","[PeriodicSite: Mg (1.866, 1.866, 1.866) [0.5, 0.5, 0.5], PeriodicSite: Cu (0.0, 0.0, 0.0) [0.0, 0.0, 0.0], PeriodicSite: O (1.866, 0.0, 0.0) [0.5, 0.0, 0.0], PeriodicSite: O (0.0, 1.866, 0.0) [0.0, 0.5, 0.0], PeriodicSite: O (0.0, 0.0, 1.866) [0.0, 0.0, 0.5]]",51.9444260137228,"[Element Mg, Element Cu, Element O, Element O, Element O]",False,False,-1.1621901292499999,0.4982033776250008,0.0
363,mp,mp-1017627.cif,Lu3 Al1 N1,Lu3AlN,Pm-3m,4.60314447,4.60314447,4.60314447,90.0,90.0,90.0,"(True, True, True)","[PeriodicSite: Lu (2.302, 2.302, 0.0) [0.5, 0.5, 0.0], PeriodicSite: Lu (2.302, 0.0, 2.302) [0.5, -0.0, 0.5], PeriodicSite: Lu (0.0, 2.302, 2.302) [0.0, 0.5, 0.5], PeriodicSite: Al (0.0, 0.0, 0.0) [0.0, -0.0, 0.0], PeriodicSite: N (2.302, 2.302, 2.302) [0.5, 0.5, 0.5]]",97.53574743683536,"[Element Lu, Element Lu, Element Lu, Element Al, Element N]",True,False,-1.0346238729999997,0.0,0.0
364,mp,mp-1099572.cif,Mn1 In1 F3,MnInF3,P1,4.3080337202860886,4.308926509687303,4.309700028487946,89.8985325026571,89.72196542648474,89.95820660214943,"(True, True, True)","[PeriodicSite: Mn (-2.143, -2.083, -2.174) [0.4882, 0.4986, 0.495], PeriodicSite: In (-4.282, -4.246, -4.351) [0.9949, 0.9963, 0.9905], PeriodicSite: F (-4.3, -2.058, -2.207) [0.4828, 0.9993, 0.4998], PeriodicSite: F (-2.175, -4.233, -2.259) [0.9874, 0.5053, 0.5081], PeriodicSite: F (-2.142, -2.058, -4.336) [0.4867, 0.5005, 0.9966]]",79.9998764939565,"[Element Mn, Element In, Element F, Element F, Element F]",False,True,-2.505715141086207,0.03117851666666649,2.9574
365,mp,mp-1183115.cif,Ac1 Al1 O3,AcAlO3,Pm-3m,3.85863387,3.85863387,3.85863387,90.0,90.0,90.0,"(True, True, True)","[PeriodicSite: Ac (0.0, 0.0, 0.0) [-0.0, 0.0, 0.0], PeriodicSite: Al (1.929, 1.929, 1.929) [0.5, 0.5, 0.5], PeriodicSite: O (1.929, 1.929, 0.0) [0.5, 0.5, 0.0], PeriodicSite: O (1.929, 0.0, 1.929) [0.5, 0.0, 0.5], PeriodicSite: O (0.0, 1.929, 1.929) [0.0, 0.5, 0.5]]",57.4514132376898,"[Element Ac, Element Al, Element O, Element O, Element O]",True,False,-3.6907827977500007,0.0,4.1024
366,mp,mp-1184987.cif,K1 Gd1 O3,KGdO3,Pm-3m,4.46096,4.46096,4.46096,90.0,90.0,90.0,"(True, True, True)","[PeriodicSite: K (0.0, 0.0, 0.0) [0.0, 0.0, 0.0], PeriodicSite: Gd (2.23, 2.23, 2.23) [0.5, 0.5, 0.5], PeriodicSite: O (2.23, 2.23, 0.0) [0.5, 0.5, 0.0], PeriodicSite: O (2.23, 0.0, 2.23) [0.5, 0.0, 0.5], PeriodicSite: O (0.0, 2.23, 2.23) [0.0, 0.5, 0.5]]",88.77383613989274,"[Element K, Element Gd, Element O, Element O, Element O]",False,True,-2.3219023218500006,0.18361395033333316,0.0
367,mp,mp-1016827.cif,Mg1 Ge1 O3,MgGeO3,Pm-3m,3.718173,3.718173,3.718173,90.0,90.0,90.0,"(True, True, True)","[PeriodicSite: Mg (0.0, 0.0, 0.0) [0.0, 0.0, 0.0], PeriodicSite: Ge (1.859, 1.859, 1.859) [0.5, 0.5, 0.5], PeriodicSite: O (1.859, 1.859, 0.0) [0.5, 0.5, 0.0], PeriodicSite: O (1.859, 0.0, 1.859) [0.5, 0.0, 0.5], PeriodicSite: O (0.0, 1.859, 1.859) [0.0, 0.5, 0.5]]",51.40303697478925,"[Element Mg, Element Ge, Element O, Element O, Element O]",False,False,-2.04758460225,0.5132268500000032,3.6765
368,mp,mp-1183128.cif,Al1 V1 O3,AlVO3,Pm-3m,3.640495,3.640495,3.640495,90.0,90.0,90.0,"(True, True, True)","[PeriodicSite: Al (1.82, 1.82, 1.82) [0.5, 0.5, 0.5], PeriodicSite: V (0.0, 0.0, 0.0) [0.0, 0.0, 0.0], PeriodicSite: O (1.82, 1.82, 0.0) [0.5, 0.5, 0.0], PeriodicSite: O (1.82, 0.0, 1.82) [0.5, 0.0, 0.5], PeriodicSite: O (0.0, 1.82, 1.82) [0.0, 0.5, 0.5]]",48.24822233179429,"[Element Al, Element V, Element O, Element O, Element O]",False,True,-2.2719762272500006,0.7093364996250013,0.0
369,mp,mp-1185065.cif,La1 Zr1 O3,LaZrO3,Pm-3m,4.193758,4.193758,4.193758,90.0,90.0,90.0,"(True, True, True)","[PeriodicSite: La (0.0, 0.0, 0.0) [0.0, 0.0, 0.0], PeriodicSite: Zr (2.097, 2.097, 2.097) [0.5, 0.5, 0.5], PeriodicSite: O (2.097, 2.097, 0.0) [0.5, 0.5, 0.0], PeriodicSite: O (2.097, 0.0, 2.097) [0.5, 0.0, 0.5], PeriodicSite: O (0.0, 2.097, 2.097) [0.0, 0.5, 0.5]]",73.75816404510208,"[Element La, Element Zr, Element O, Element O, Element O]",False,False,-3.4289303242500004,0.28676275778748916,0.0
370,mp,mp-1112987.cif,Cs1 Au1 Br3,CsAuBr3,Pm-3m,5.47254,5.47254,5.47254,90.0,90.0,90.0,"(True, True, True)","[PeriodicSite: Cs (2.736, 2.736, 2.736) [0.5, 0.5, 0.5], PeriodicSite: Au (0.0, 0.0, 0.0) [0.0, 0.0, 0.0], PeriodicSite: Br (0.0, 0.0, 2.736) [0.0, 0.0, 0.5], PeriodicSite: Br (2.736, 0.0, 0.0) [0.5, 0.0, 0.0], PeriodicSite: Br (0.0, 2.736, 0.0) [0.0, 0.5, 0.0]]",163.8954261451431,"[Element Cs, Element Au, Element Br, Element Br, Element Br]",False,False,-1.218629387586207,0.05305975899999993,0.0
371,mp,mp-1183292.cif,Ba1 Cd1 O3,BaCdO3,Pm-3m,4.302665,4.302665,4.302665,90.0,90.0,90.0,"(True, True, True)","[PeriodicSite: Ba (0.0, 0.0, 0.0) [0.0, 0.0, 0.0], PeriodicSite: Cd (2.151, 2.151, 2.151) [0.5, 0.5, 0.5], PeriodicSite: O (2.151, 2.151, 0.0) [0.5, 0.5, 0.0], PeriodicSite: O (2.151, 0.0, 2.151) [0.5, 0.0, 0.5], PeriodicSite: O (0.0, 2.151, 2.151) [0.0, 0.5, 0.5]]",79.65491918762994,"[Element Ba, Element Cd, Element O, Element O, Element O]",False,False,-1.64588256125,0.2028810380000019,0.0
372,mp,mp-1016938.cif,V1 Hg1 O3,VHgO3,Pm-3m,3.864387,3.864387,3.864387,90.0,90.0,90.0,"(True, True, True)","[PeriodicSite: V (1.932, 1.932, 1.932) [0.5, 0.5, 0.5], PeriodicSite: Hg (0.0, 0.0, 0.0) [0.0, 0.0, 0.0], PeriodicSite: O (1.932, 1.932, 0.0) [0.5, 0.5, 0.0], PeriodicSite: O (1.932, 0.0, 1.932) [0.5, 0.0, 0.5], PeriodicSite: O (0.0, 1.932, 1.932) [0.0, 0.5, 0.5]]",57.7087725860362,"[Element V, Element Hg, Element O, Element O, Element O]",False,True,-1.50245132425,0.2876417899999941,0.0