,provider,id,Full_Formula,formula,space_group,a_lattice_param,b_lattice_param,c_lattice_param,aplha_degree,beta_degree,gamma_degree,pbc,sits,volume,species_at_sites,is_stable,is_magnetic,formation_energy,energy_above_hull,band_gap
523,mp,mp-1185261.cif,Li1 Ni1 O3,LiNiO3,Pm-3m,3.775145,3.775145,3.775145,90.0,90.0,90.0,"(True, True, True)","[PeriodicSite: Li (0.0, 0.0, 0.0) [0.0, 0.0, 0.0], PeriodicSite: Ni (1.888, 1.888, 1.888) [0.5, 0.5, 0.5], PeriodicSite: O (1.888, 1.888, 0.0) [0.5, 0.5, 0.0], PeriodicSite: O (1.888, 0.0, 1.888) [0.5, 0.0, 0.5], PeriodicSite: O (0.0, 1.888, 1.888) [0.0, 0.5, 0.5]]",53.80230863498618,"[Element Li, Element Ni, Element O, Element O, Element O]",False,True,-0.7062217539166668,0.5024219344545466,0.0
524,mp,mp-10041.cif,Tb3 Al1 C1,Tb3AlC,Pm-3m,5.374107,5.374107,5.374107,90.0,90.0,90.0,"(True, True, True)","[PeriodicSite: Tb (0.0, 2.687, 2.687) [0.0, 0.5, 0.5], PeriodicSite: Tb (2.687, 2.687, 0.0) [0.5, 0.5, 0.0], PeriodicSite: Tb (2.687, 0.0, 2.687) [0.5, 0.0, 0.5], PeriodicSite: Al (2.687, 2.687, 2.687) [0.5, 0.5, 0.5], PeriodicSite: C (0.0, 0.0, 0.0) [0.0, 0.0, 0.0]]",155.20972424877803,"[Element Tb, Element Tb, Element Tb, Element Al, Element C]",False,False,1.4297124124999996,1.7865311839999998,0.0
525,mp,mp-1187570.cif,Yb1 Pd1 O3,YbPdO3,Pm-3m,3.933625,3.933625,3.933625,90.0,90.0,90.0,"(True, True, True)","[PeriodicSite: Yb (0.0, 0.0, 0.0) [0.0, 0.0, 0.0], PeriodicSite: Pd (1.967, 1.967, 1.967) [0.5, 0.5, 0.5], PeriodicSite: O (1.967, 1.967, 0.0) [0.5, 0.5, 0.0], PeriodicSite: O (1.967, 0.0, 1.967) [0.5, 0.0, 0.5], PeriodicSite: O (0.0, 1.967, 1.967) [0.0, 0.5, 0.5]]",60.86657526310353,"[Element Yb, Element Pd, Element O, Element O, Element O]",False,False,-1.69577856725,0.19338604900000078,0.0
526,mp,mp-1212637.cif,Ga1 Fe3 N1,GaFe3N,Pm-3m,3.728742,3.728742,3.728742,90.0,90.0,90.0,"(True, True, True)","[PeriodicSite: Ga (1.864, 1.864, 1.864) [0.5, 0.5, 0.5], PeriodicSite: Fe (1.864, 0.0, 0.0) [0.5, 0.0, 0.0], PeriodicSite: Fe (0.0, 1.864, 0.0) [0.0, 0.5, 0.0], PeriodicSite: Fe (0.0, 0.0, 1.864) [0.0, 0.0, 0.5], PeriodicSite: N (0.0, 0.0, 0.0) [0.0, 0.0, 0.0]]",51.842627422300296,"[Element Ga, Element Fe, Element Fe, Element Fe, Element N]",False,True,-0.22484847049999956,0.03787827700000079,0.0
527,mp,mp-1075975.cif,Eu1 Co1 O3,EuCoO3,Pm-3m,3.770115,3.770115,3.770115,90.0,90.0,90.0,"(True, True, True)","[PeriodicSite: Eu (1.885, 1.885, 1.885) [0.5, 0.5, 0.5], PeriodicSite: Co (0.0, 0.0, 0.0) [0.0, 0.0, 0.0], PeriodicSite: O (1.885, 0.0, 0.0) [0.5, 0.0, 0.0], PeriodicSite: O (0.0, 1.885, 0.0) [0.0, 0.5, 0.0], PeriodicSite: O (0.0, 0.0, 1.885) [0.0, 0.0, 0.5]]",53.58753660007628,"[Element Eu, Element Co, Element O, Element O, Element O]",False,True,-2.123302194249999,0.09700854900000166,0.0
528,mp,mp-1187530.cif,Tl1 Hg1 O3,TlHgO3,Pm-3m,4.26104,4.26104,4.26104,90.0,90.0,90.0,"(True, True, True)","[PeriodicSite: Tl (2.131, 2.131, 2.131) [0.5, 0.5, 0.5], PeriodicSite: Hg (0.0, 0.0, 0.0) [0.0, 0.0, 0.0], PeriodicSite: O (2.131, 2.131, 0.0) [0.5, 0.5, 0.0], PeriodicSite: O (2.131, 0.0, 2.131) [0.5, 0.0, 0.5], PeriodicSite: O (0.0, 2.131, 2.131) [0.0, 0.5, 0.5]]",77.36541033597288,"[Element Tl, Element Hg, Element O, Element O, Element O]",False,False,-0.20326936691666617,0.6045725551249999,0.0
529,mp,mp-1013548.cif,Ca3 Sb1 N1,Ca3SbN,Pm-3m,4.86018189,4.86018189,4.86018189,90.0,90.0,90.0,"(True, True, True)","[PeriodicSite: Ca (0.0, 2.43, 2.43) [0.0, 0.5, 0.5], PeriodicSite: Ca (2.43, 0.0, 2.43) [0.5, -0.0, 0.5], PeriodicSite: Ca (2.43, 2.43, 0.0) [0.5, 0.5, 0.0], PeriodicSite: Sb (0.0, 0.0, 0.0) [0.0, 0.0, 0.0], PeriodicSite: N (2.43, 2.43, 2.43) [0.5, 0.5, 0.5]]",114.8041449895023,"[Element Ca, Element Ca, Element Ca, Element Sb, Element N]",True,False,-1.203127009,0.0,0.40750000000000064
530,mp,mp-1185498.cif,Lu1 Np1 O3,LuNpO3,Pm-3m,4.198436,4.198436,4.198436,90.0,90.0,90.0,"(True, True, True)","[PeriodicSite: Lu (2.099, 2.099, 2.099) [0.5, 0.5, 0.5], PeriodicSite: Np (0.0, 0.0, 0.0) [0.0, 0.0, 0.0], PeriodicSite: O (2.099, 2.099, 0.0) [0.5, 0.5, 0.0], PeriodicSite: O (2.099, 0.0, 2.099) [0.5, 0.0, 0.5], PeriodicSite: O (0.0, 2.099, 2.099) [0.0, 0.5, 0.5]]",74.00526393698391,"[Element Lu, Element Np, Element O, Element O, Element O]",False,True,-3.108341951000001,0.5750024781874998,0.04929999999999968
531,mp,mp-1016831.cif,Hg1 Ir1 O3,HgIrO3,Pm-3m,3.966927,3.966927,3.966927,90.0,90.0,90.0,"(True, True, True)","[PeriodicSite: Hg (0.0, 0.0, 0.0) [0.0, 0.0, 0.0], PeriodicSite: Ir (1.983, 1.983, 1.983) [0.5, 0.5, 0.5], PeriodicSite: O (1.983, 1.983, 0.0) [0.5, 0.5, 0.0], PeriodicSite: O (1.983, 0.0, 1.983) [0.5, 0.0, 0.5], PeriodicSite: O (0.0, 1.983, 1.983) [0.0, 0.5, 0.5]]",62.425585703929045,"[Element Hg, Element Ir, Element O, Element O, Element O]",False,False,-0.6106083302500004,0.40191207849999966,0.0
532,mp,mp-1183920.cif,Cs1 Pa1 O3,CsPaO3,Pm-3m,4.42986213,4.42986213,4.42986213,90.0,90.0,90.0,"(True, True, True)","[PeriodicSite: Cs (0.0, 0.0, 0.0) [-0.0, -0.0, -0.0], PeriodicSite: Pa (2.215, 2.215, 2.215) [0.5, 0.5, 0.5], PeriodicSite: O (2.215, 2.215, 0.0) [0.5, 0.5, -0.0], PeriodicSite: O (2.215, 0.0, 2.215) [0.5, -0.0, 0.5], PeriodicSite: O (0.0, 2.215, 2.215) [-0.0, 0.5, 0.5]]",86.93019019772653,"[Element Cs, Element Pa, Element O, Element O, Element O]",True,False,-3.4668278108362074,0.0,2.9729999999999994
533,mp,mp-1184484.cif,Gd1 Si1 O3,GdSiO3,Pm-3m,3.730327,3.730327,3.730327,90.0,90.0,90.0,"(True, True, True)","[PeriodicSite: Gd (0.0, 0.0, 0.0) [0.0, 0.0, 0.0], PeriodicSite: Si (1.865, 1.865, 1.865) [0.5, 0.5, 0.5], PeriodicSite: O (1.865, 1.865, 0.0) [0.5, 0.5, 0.0], PeriodicSite: O (1.865, 0.0, 1.865) [0.5, 0.0, 0.5], PeriodicSite: O (0.0, 1.865, 1.865) [0.0, 0.5, 0.5]]",51.90876675147047,"[Element Gd, Element Si, Element O, Element O, Element O]",False,True,-2.88325767125,0.607033879624991,0.0
534,mp,mp-1184546.cif,Ho1 B1 O3,HoBO3,Pm-3m,3.472834,3.472834,3.472834,90.0,90.0,90.0,"(True, True, True)","[PeriodicSite: Ho (0.0, 0.0, 0.0) [0.0, 0.0, 0.0], PeriodicSite: B (1.736, 1.736, 1.736) [0.5, 0.5, 0.5], PeriodicSite: O (1.736, 1.736, 0.0) [0.5, 0.5, 0.0], PeriodicSite: O (1.736, 0.0, 1.736) [0.5, 0.0, 0.5], PeriodicSite: O (0.0, 1.736, 1.736) [0.0, 0.5, 0.5]]",41.8843783630594,"[Element Ho, Element B, Element O, Element O, Element O]",False,False,-2.6898065530833337,0.8710648650000055,2.6416000000000004
535,mp,mp-1080187.cif,Mn1 Hg1 O3,MnHgO3,Pm-3m,3.886539,3.886539,3.886539,90.0,90.0,90.0,"(True, True, True)","[PeriodicSite: Mn (1.943, 1.943, 1.943) [0.5, 0.5, 0.5], PeriodicSite: Hg (0.0, 0.0, 0.0) [0.0, 0.0, 0.0], PeriodicSite: O (1.943, 1.943, 0.0) [0.5, 0.5, 0.0], PeriodicSite: O (1.943, 0.0, 1.943) [0.5, 0.0, 0.5], PeriodicSite: O (0.0, 1.943, 1.943) [0.0, 0.5, 0.5]]",58.70689215358241,"[Element Mn, Element Hg, Element O, Element O, Element O]",False,True,-1.0467741138362072,0.2927085540000016,0.0
536,mp,mp-1018646.cif,Yb1 H3 Pd1,YbH3Pd,Pm-3m,3.65730292,3.65730292,3.65730292,90.0,90.0,90.0,"(True, True, True)","[PeriodicSite: Yb (1.829, 1.829, 1.829) [0.5, 0.5, 0.5], PeriodicSite: H (0.0, 0.0, 1.829) [-0.0, -0.0, 0.5], PeriodicSite: H (0.0, 1.829, 0.0) [-0.0, 0.5, -0.0], PeriodicSite: H (1.829, 0.0, 0.0) [0.5, -0.0, -0.0], PeriodicSite: Pd (0.0, 0.0, 0.0) [-0.0, -0.0, -0.0]]",48.91958883699776,"[Element Yb, Element H, Element H, Element H, Element Pd]",True,False,-0.5734797589999999,0.0,0.0
537,mp,mp-1184349.cif,Fe1 Rh1 O3,FeRhO3,Pm-3m,3.898442,3.898442,3.898442,90.0,90.0,90.0,"(True, True, True)","[PeriodicSite: Fe (0.0, 0.0, 0.0) [0.0, 0.0, 0.0], PeriodicSite: Rh (1.949, 1.949, 1.949) [0.5, 0.5, 0.5], PeriodicSite: O (1.949, 1.949, 0.0) [0.5, 0.5, 0.0], PeriodicSite: O (1.949, 0.0, 1.949) [0.5, 0.0, 0.5], PeriodicSite: O (0.0, 1.949, 1.949) [0.0, 0.5, 0.5]]",59.247936856376974,"[Element Fe, Element Rh, Element O, Element O, Element O]",False,True,-0.3649624912500009,1.0378761892500004,0.0
538,mp,mp-1017553.cif,Cd1 Co3 N1,CdCo3N,Pm-3m,3.855044,3.855044,3.855044,90.0,90.0,90.0,"(True, True, True)","[PeriodicSite: Cd (0.0, 0.0, 0.0) [0.0, 0.0, 0.0], PeriodicSite: Co (1.928, 1.928, 0.0) [0.5, 0.5, 0.0], PeriodicSite: Co (1.928, 0.0, 1.928) [0.5, 0.0, 0.5], PeriodicSite: Co (0.0, 1.928, 1.928) [0.0, 0.5, 0.5], PeriodicSite: N (1.928, 1.928, 1.928) [0.5, 0.5, 0.5]]",57.291213052689926,"[Element Cd, Element Co, Element Co, Element Co, Element N]",True,True,-0.04311759599999974,0.0,0.0
539,mp,mp-1187561.cif,Yb1 Ga1 O3,YbGaO3,Pm-3m,3.837686,3.837686,3.837686,90.0,90.0,90.0,"(True, True, True)","[PeriodicSite: Yb (0.0, 0.0, 0.0) [0.0, 0.0, 0.0], PeriodicSite: Ga (1.919, 1.919, 1.919) [0.5, 0.5, 0.5], PeriodicSite: O (1.919, 1.919, 0.0) [0.5, 0.5, 0.0], PeriodicSite: O (1.919, 0.0, 1.919) [0.5, 0.0, 0.5], PeriodicSite: O (0.0, 1.919, 1.919) [0.0, 0.5, 0.5]]",56.52080171735539,"[Element Yb, Element Ga, Element O, Element O, Element O]",False,True,-2.4701711947500002,0.11928369565000896,0.0
540,mp,mp-1186216.cif,Nb1 Bi1 O3,NbBiO3,Pm-3m,4.109713,4.109713,4.109713,90.0,90.0,90.0,"(True, True, True)","[PeriodicSite: Nb (2.055, 2.055, 2.055) [0.5, 0.5, 0.5], PeriodicSite: Bi (0.0, 0.0, 0.0) [0.0, 0.0, 0.0], PeriodicSite: O (2.055, 2.055, 0.0) [0.5, 0.5, 0.0], PeriodicSite: O (2.055, 0.0, 2.055) [0.5, 0.0, 0.5], PeriodicSite: O (0.0, 2.055, 2.055) [0.0, 0.5, 0.5]]",69.41198791748614,"[Element Nb, Element Bi, Element O, Element O, Element O]",False,False,-2.0104882232500003,0.4187644048684147,0.0
541,mp,mp-1069147.cif,Pr1 Fe1 Ge3,PrFeGe3,I4mm,5.826913979067248,5.826913979067248,5.826913979067248,136.63522546251727,136.63522546251727,62.99978067388925,"(True, True, True)","[PeriodicSite: Pr (0.0, 0.0, 9.918) [0.9981, 0.9981, -0.0], PeriodicSite: Fe (0.0, 0.0, 6.608) [0.665, 0.665, 0.0], PeriodicSite: Ge (0.0, 0.0, 4.359) [0.4387, 0.4387, 0.0], PeriodicSite: Ge (2.153, 0.0, 2.53) [0.2546, 0.7546, 0.5], PeriodicSite: Ge (0.0, 2.153, 2.53) [0.7546, 0.2546, 0.5]]",92.1042356254773,"[Element Pr, Element Fe, Element Ge, Element Ge, Element Ge]",True,False,-0.49239578199999984,0.0,0.0
542,mp,mp-1183695.cif,Cr1 Tc1 O3,CrTcO3,Pm-3m,3.892618,3.892618,3.892618,90.0,90.0,90.0,"(True, True, True)","[PeriodicSite: Cr (0.0, 0.0, 0.0) [0.0, 0.0, 0.0], PeriodicSite: Tc (1.946, 1.946, 1.946) [0.5, 0.5, 0.5], PeriodicSite: O (1.946, 1.946, 0.0) [0.5, 0.5, 0.0], PeriodicSite: O (1.946, 0.0, 1.946) [0.5, 0.0, 0.5], PeriodicSite: O (0.0, 1.946, 1.946) [0.0, 0.5, 0.5]]",58.98279651663666,"[Element Cr, Element Tc, Element O, Element O, Element O]",False,True,-1.4010899362499998,0.6304814391249991,0.0
543,mp,mp-1112174.cif,K1 Au1 Br3,KAuBr3,Pm-3m,5.413378,5.413378,5.413378,90.0,90.0,90.0,"(True, True, True)","[PeriodicSite: K (2.707, 2.707, 2.707) [0.5, 0.5, 0.5], PeriodicSite: Au (0.0, 0.0, 0.0) [0.0, 0.0, 0.0], PeriodicSite: Br (2.707, 0.0, 0.0) [0.5, 0.0, 0.0], PeriodicSite: Br (0.0, 0.0, 2.707) [0.0, 0.0, 0.5], PeriodicSite: Br (0.0, 2.707, 0.0) [0.0, 0.5, 0.0]]",158.63720916259328,"[Element K, Element Au, Element Br, Element Br, Element Br]",False,False,-1.1580812926,0.04632947512499985,0.0
544,mp,mp-1184117.cif,Cu1 Pb1 O3,CuPbO3,Pm-3m,3.873189,3.873189,3.873189,90.0,90.0,90.0,"(True, True, True)","[PeriodicSite: Cu (0.0, 0.0, 0.0) [0.0, 0.0, 0.0], PeriodicSite: Pb (1.937, 1.937, 1.937) [0.5, 0.5, 0.5], PeriodicSite: O (0.0, 0.0, 1.937) [0.0, 0.0, 0.5], PeriodicSite: O (0.0, 1.937, 0.0) [0.0, 0.5, 0.0], PeriodicSite: O (1.937, 0.0, 0.0) [0.5, 0.0, 0.0]]",58.10400510519205,"[Element Cu, Element Pb, Element O, Element O, Element O]",False,False,-0.9185947112500003,0.25070310449999944,0.0
545,mp,mp-1016873.cif,Ca1 Hf1 O3,CaHfO3,Pm-3m,4.105097,4.105097,4.105097,90.0,90.0,90.0,"(True, True, True)","[PeriodicSite: Ca (0.0, 0.0, 0.0) [0.0, 0.0, 0.0], PeriodicSite: Hf (2.053, 2.053, 2.053) [0.5, 0.5, 0.5], PeriodicSite: O (2.053, 2.053, 0.0) [0.5, 0.5, 0.0], PeriodicSite: O (2.053, 0.0, 2.053) [0.5, 0.0, 0.5], PeriodicSite: O (0.0, 2.053, 2.053) [0.0, 0.5, 0.5]]",69.17836138914774,"[Element Ca, Element Hf, Element O, Element O, Element O]",False,False,-3.6673847012500005,0.15431673800000034,3.6612
546,mp,mp-1068653.cif,Ca1 Si3 Ir1,CaSi3Ir,I4mm,5.762805690723411,5.762805690723411,5.762805690723411,137.3753047191988,137.3753047191988,61.86110819986085,"(True, True, True)","[PeriodicSite: Ca (0.0, 0.0, 9.886) [1.0, 1.0, 0.0], PeriodicSite: Si (0.0, 0.0, 4.043) [0.409, 0.409, -0.0], PeriodicSite: Si (2.095, 0.0, 2.561) [0.259, 0.759, 0.5], PeriodicSite: Si (0.0, 2.095, 2.561) [0.759, 0.259, 0.5], PeriodicSite: Ir (0.0, 0.0, 6.398) [0.6471, 0.6471, 0.0]]",86.74361441934843,"[Element Ca, Element Si, Element Si, Element Si, Element Ir]",True,False,-0.6340106720000002,0.0,0.0
547,mp,mp-1055491.cif,Rb1 Ag1 F3,RbAgF3,Amm2,4.352208894913502,6.145367684549083,6.144904236425913,119.94665360632281,90.06301513045251,44.90681261391213,"(True, True, True)","[PeriodicSite: Rb (3.075, 3.07, 2.169) [0.4969, 0.5015, 0.001534], PeriodicSite: Ag (6.15, 3.076, 0.0002225) [0.9988, 0.5006, 0.5006], PeriodicSite: F (1.537, 1.536, 6.199e-05) [0.4987, 0.0005768, 0.0005789], PeriodicSite: F (4.613, 1.536, 0.0001307) [0.4987, 0.5008, 0.5008], PeriodicSite: F (3.075, -0.0001308, -2.169) [0.4999, 2.926e-05, 0.5]]",82.1683324390747,"[Element Rb, Element Ag, Element F, Element F, Element F]",False,False,-2.130618128333333,0.001443162999999359,0.0
548,mp,mp-1186893.cif,Rb1 Sn1 O3,RbSnO3,Pm-3m,4.200596,4.200596,4.200596,90.0,90.0,90.0,"(True, True, True)","[PeriodicSite: Rb (0.0, 0.0, 0.0) [0.0, 0.0, 0.0], PeriodicSite: Sn (2.1, 2.1, 2.1) [0.5, 0.5, 0.5], PeriodicSite: O (2.1, 2.1, 0.0) [0.5, 0.5, 0.0], PeriodicSite: O (2.1, 0.0, 2.1) [0.5, 0.0, 0.5], PeriodicSite: O (0.0, 2.1, 2.1) [0.0, 0.5, 0.5]]",74.11954479593331,"[Element Rb, Element Sn, Element O, Element O, Element O]",False,True,-1.6505747717500001,0.18585081483333,0.0
549,mp,mp-1185310.cif,Li1 Er1 O3,LiErO3,Pm-3m,3.655435,3.655435,3.655435,90.0,90.0,90.0,"(True, True, True)","[PeriodicSite: Li (0.0, 0.0, 0.0) [0.0, 0.0, 0.0], PeriodicSite: Er (1.828, 1.828, 1.828) [0.5, 0.5, 0.5], PeriodicSite: O (0.0, 0.0, 1.828) [0.0, 0.0, 0.5], PeriodicSite: O (0.0, 1.828, 0.0) [0.0, 0.5, 0.0], PeriodicSite: O (1.828, 0.0, 0.0) [0.5, 0.0, 0.0]]",48.84467197755944,"[Element Li, Element Er, Element O, Element O, Element O]",False,True,-2.2367199639166655,0.460419717214287,0.0
550,mp,mp-1184206.cif,Ga1 Si1 O3,GaSiO3,Pm-3m,3.576533,3.576533,3.576533,90.0,90.0,90.0,"(True, True, True)","[PeriodicSite: Ga (0.0, 0.0, 0.0) [0.0, 0.0, 0.0], PeriodicSite: Si (1.788, 1.788, 1.788) [0.5, 0.5, 0.5], PeriodicSite: O (1.788, 1.788, 0.0) [0.5, 0.5, 0.0], PeriodicSite: O (1.788, 0.0, 1.788) [0.5, 0.0, 0.5], PeriodicSite: O (0.0, 1.788, 1.788) [0.0, 0.5, 0.5]]",45.74953767768221,"[Element Ga, Element Si, Element O, Element O, Element O]",False,False,-2.0470392807500004,0.6703666545000013,0.0
551,mp,mp-1186320.cif,Np1 Hg1 O3,NpHgO3,Pm-3m,4.266996,4.266996,4.266996,90.0,90.0,90.0,"(True, True, True)","[PeriodicSite: Np (2.133, 2.133, 2.133) [0.5, 0.5, 0.5], PeriodicSite: Hg (0.0, 0.0, 0.0) [0.0, 0.0, 0.0], PeriodicSite: O (2.133, 2.133, 0.0) [0.5, 0.5, 0.0], PeriodicSite: O (2.133, 0.0, 2.133) [0.5, 0.0, 0.5], PeriodicSite: O (0.0, 2.133, 2.133) [0.0, 0.5, 0.5]]",77.6902836757368,"[Element Np, Element Hg, Element O, Element O, Element O]",False,True,-2.381429852,0.16090852025000046,0.0
552,mp,mp-1185614.cif,Mg1 U1 O3,MgUO3,Pm-3m,3.81296,3.81296,3.81296,90.0,90.0,90.0,"(True, True, True)","[PeriodicSite: Mg (1.906, 1.906, 1.906) [0.5, 0.5, 0.5], PeriodicSite: U (0.0, 0.0, 0.0) [0.0, 0.0, 0.0], PeriodicSite: O (1.906, 1.906, 0.0) [0.5, 0.5, 0.0], PeriodicSite: O (1.906, 0.0, 1.906) [0.5, 0.0, 0.5], PeriodicSite: O (0.0, 1.906, 1.906) [0.0, 0.5, 0.5]]",55.435344139022334,"[Element Mg, Element U, Element O, Element O, Element O]",False,True,-2.84886686725,0.6235247140000144,0.0
553,mp,mp-1016852.cif,Ba1 Mn1 O3,BaMnO3,Pm-3m,4.033313,4.033313,4.033313,90.0,90.0,90.0,"(True, True, True)","[PeriodicSite: Ba (2.017, 2.017, 2.017) [0.5, 0.5, 0.5], PeriodicSite: Mn (0.0, 0.0, 0.0) [0.0, 0.0, 0.0], PeriodicSite: O (2.017, 0.0, 0.0) [0.5, 0.0, 0.0], PeriodicSite: O (0.0, 2.017, 0.0) [0.0, 0.5, 0.0], PeriodicSite: O (0.0, 0.0, 2.017) [0.0, 0.0, 0.5]]",65.61237804092859,"[Element Ba, Element Mn, Element O, Element O, Element O]",False,True,-2.3569687968362074,0.12611307899999957,0.0
554,mp,mp-1209203.cif,Rb1 Cd1 N3,RbCdN3,Pm-3m,4.58767,4.58767,4.58767,90.0,90.0,90.0,"(True, True, True)","[PeriodicSite: Rb (2.294, 2.294, 2.294) [0.5, 0.5, 0.5], PeriodicSite: Cd (0.0, 0.0, 0.0) [0.0, 0.0, 0.0], PeriodicSite: N (2.294, 0.0, 0.0) [0.5, 0.0, 0.0], PeriodicSite: N (0.0, 2.294, 0.0) [0.0, 0.5, 0.0], PeriodicSite: N (0.0, 0.0, 2.294) [0.0, 0.0, 0.5]]",96.55538772430367,"[Element Rb, Element Cd, Element N, Element N, Element N]",False,True,1.6577947095000005,1.9876278490000008,0.0
555,mp,mp-1187621.cif,Tl1 W1 O3,TlWO3,Pm-3m,4.077202,4.077202,4.077202,90.0,90.0,90.0,"(True, True, True)","[PeriodicSite: Tl (0.0, 0.0, 0.0) [0.0, 0.0, 0.0], PeriodicSite: W (2.039, 2.039, 2.039) [0.5, 0.5, 0.5], PeriodicSite: O (2.039, 2.039, 0.0) [0.5, 0.5, 0.0], PeriodicSite: O (2.039, 0.0, 2.039) [0.5, 0.0, 0.5], PeriodicSite: O (0.0, 2.039, 2.039) [0.0, 0.5, 0.5]]",67.77767792105595,"[Element Tl, Element W, Element O, Element O, Element O]",False,True,-1.6448745379166667,0.15775196400001157,0.0
556,mp,mp-1185490.cif,Lu1 Pd1 O3,LuPdO3,Pm-3m,3.963751,3.963751,3.963751,90.0,90.0,90.0,"(True, True, True)","[PeriodicSite: Lu (0.0, 0.0, 0.0) [0.0, 0.0, 0.0], PeriodicSite: Pd (1.982, 1.982, 1.982) [0.5, 0.5, 0.5], PeriodicSite: O (1.982, 1.982, 0.0) [0.5, 0.5, 0.0], PeriodicSite: O (1.982, 0.0, 1.982) [0.5, 0.0, 0.5], PeriodicSite: O (0.0, 1.982, 1.982) [0.0, 0.5, 0.5]]",62.275768249188445,"[Element Lu, Element Pd, Element O, Element O, Element O]",False,False,-1.754800533249999,0.6842253166250032,0.0
557,mp,mp-1068795.cif,Ni1 N1 F3,NiNF3,Pm-3m,3.928837,3.928837,3.928837,90.0,90.0,90.0,"(True, True, True)","[PeriodicSite: Ni (1.964, 1.964, 1.964) [0.5, 0.5, 0.5], PeriodicSite: N (0.0, 0.0, 0.0) [0.0, 0.0, 0.0], PeriodicSite: F (0.0, 1.964, 1.964) [0.0, 0.5, 0.5], PeriodicSite: F (1.964, 1.964, 0.0) [0.5, 0.5, 0.0], PeriodicSite: F (1.964, 0.0, 1.964) [0.5, 0.0, 0.5]]",60.64458568911548,"[Element Ni, Element N, Element F, Element F, Element F]",False,True,-0.0933940204999999,1.4588398319999998,0.0
558,mp,mp-1069375.cif,Nd1 Al3 Cu1,NdAl3Cu,I4mm,6.08348091487763,6.08348091487763,6.08348091487763,139.46645838855972,139.46645838855972,58.664308553879096,"(True, True, True)","[PeriodicSite: Nd (0.0, 0.0, 0.003396) [0.0003202, 0.0003202, -0.0], PeriodicSite: Al (0.0, 0.0, 4.333) [0.4085, 0.4085, 0.0], PeriodicSite: Al (2.107, 2.22e-16, 2.649) [0.2498, 0.7498, 0.5], PeriodicSite: Al (2.22e-16, 2.107, 2.649) [0.7498, 0.2498, 0.5], PeriodicSite: Cu (0.0, 0.0, 6.715) [0.6331, 0.6331, -0.0]]",94.20314628104157,"[Element Nd, Element Al, Element Al, Element Al, Element Cu]",True,False,-0.47170288749999967,0.0,0.0
559,mp,mp-1206367.cif,Ce3 Al1 O1,Ce3AlO,Pm-3m,4.827101,4.827101,4.827101,90.0,90.0,90.0,"(True, True, True)","[PeriodicSite: Ce (2.414, 0.0, 0.0) [0.5, 0.0, 0.0], PeriodicSite: Ce (0.0, 2.414, 0.0) [0.0, 0.5, 0.0], PeriodicSite: Ce (0.0, 0.0, 2.414) [0.0, 0.0, 0.5], PeriodicSite: Al (2.414, 2.414, 2.414) [0.5, 0.5, 0.5], PeriodicSite: O (0.0, 0.0, 0.0) [0.0, 0.0, 0.0]]",112.47581730920871,"[Element Ce, Element Ce, Element Ce, Element Al, Element O]",False,True,-1.40786246475,0.02531090099999922,0.0
560,mp,mp-10250.cif,Ba1 Li1 F3,BaLiF3,Pm-3m,3.98858164,3.98858164,3.98858164,90.0,90.0,90.0,"(True, True, True)","[PeriodicSite: Ba (0.0, 0.0, 0.0) [-0.0, -0.0, -0.0], PeriodicSite: Li (1.994, 1.994, 1.994) [0.5, 0.5, 0.5], PeriodicSite: F (0.0, 1.994, 1.994) [-0.0, 0.5, 0.5], PeriodicSite: F (1.994, 1.994, 0.0) [0.5, 0.5, -0.0], PeriodicSite: F (1.994, 0.0, 1.994) [0.5, -0.0, 0.5]]",63.45348177862734,"[Element Ba, Element Li, Element F, Element F, Element F]",False,False,-3.742865088166666,0.021903220000001333,6.564299999999999