,provider,id,Full_Formula,formula,space_group,a_lattice_param,b_lattice_param,c_lattice_param,aplha_degree,beta_degree,gamma_degree,pbc,sits,volume,species_at_sites,is_stable,is_magnetic,formation_energy,energy_above_hull,band_gap
1734,mp,mp-4448.cif,Y3 Al1 C1,Y3AlC,Pm-3m,4.88638886,4.88638886,4.88638886,90.0,90.0,90.0,"(True, True, True)","[PeriodicSite: Y (0.0, 2.443, 2.443) [0.0, 0.5, 0.5], PeriodicSite: Y (2.443, 2.443, 0.0) [0.5, 0.5, 0.0], PeriodicSite: Y (2.443, 0.0, 2.443) [0.5, 0.0, 0.5], PeriodicSite: Al (0.0, 0.0, 0.0) [0.0, 0.0, 0.0], PeriodicSite: C (2.443, 2.443, 2.443) [0.5, 0.5, 0.5]]",116.67131043219946,"[Element Y, Element Y, Element Y, Element Al, Element C]",True,False,-0.4180685674999992,0.0,0.0
1735,mp,mp-978987.cif,Sr1 Ge3 Pd1,SrGe3Pd,I4mm,6.042452392232789,6.042452392232789,6.042452392232789,136.4648802532426,136.4648802532426,63.262436104416444,"(True, True, True)","[PeriodicSite: Sr (0.0, 0.0, 10.28) [0.9986, 0.9986, 0.0], PeriodicSite: Ge (0.0, 0.0, 4.113) [0.3997, 0.3997, -0.0], PeriodicSite: Ge (2.241e-06, 2.241, 2.605) [0.7532, 0.2532, 0.5], PeriodicSite: Ge (2.241, 2.241e-06, 2.605) [0.2532, 0.7532, 0.5], PeriodicSite: Pd (0.0, 0.0, 6.617) [0.6431, 0.6431, -0.0]]",103.33142912057775,"[Element Sr, Element Ge, Element Ge, Element Ge, Element Pd]",True,False,-0.5529293943333329,0.0,0.0
1736,mp,mp-975405.cif,Rb1 Au1 O3,RbAuO3,Pm-3m,4.21732,4.21732,4.21732,90.0,90.0,90.0,"(True, True, True)","[PeriodicSite: Rb (2.109, 2.109, 2.109) [0.5, 0.5, 0.5], PeriodicSite: Au (0.0, 0.0, 0.0) [0.0, 0.0, 0.0], PeriodicSite: O (0.0, 0.0, 2.109) [0.0, 0.0, 0.5], PeriodicSite: O (0.0, 2.109, 0.0) [0.0, 0.5, 0.0], PeriodicSite: O (2.109, 0.0, 0.0) [0.5, 0.0, 0.0]]",75.00835937393516,"[Element Rb, Element Au, Element O, Element O, Element O]",False,True,-0.5249484207500004,0.38454542724999907,0.0
1737,mp,mp-864636.cif,Ce1 Fe1 O3,CeFeO3,Pm-3m,3.933579,3.933579,3.933579,90.0,90.0,90.0,"(True, True, True)","[PeriodicSite: Ce (0.0, 0.0, 0.0) [0.0, 0.0, 0.0], PeriodicSite: Fe (1.967, 1.967, 1.967) [0.5, 0.5, 0.5], PeriodicSite: O (1.967, 1.967, 0.0) [0.5, 0.5, 0.0], PeriodicSite: O (1.967, 0.0, 1.967) [0.5, 0.0, 0.5], PeriodicSite: O (0.0, 1.967, 1.967) [0.0, 0.5, 0.5]]",60.86443995809566,"[Element Ce, Element Fe, Element O, Element O, Element O]",False,True,-2.5743198562500007,0.376129136000003,0.0
1738,mp,mp-27214.cif,Cs1 Sn1 Br3,CsSnBr3,Pm-3m,5.83900561,5.83900561,5.83900561,90.0,90.0,90.0,"(True, True, True)","[PeriodicSite: Cs (0.0, 0.0, 0.0) [-0.0, -0.0, 0.0], PeriodicSite: Sn (2.92, 2.92, 2.92) [0.5, 0.5, 0.5], PeriodicSite: Br (2.92, 0.0, 2.92) [0.5, -0.0, 0.5], PeriodicSite: Br (2.92, 2.92, 0.0) [0.5, 0.5, -0.0], PeriodicSite: Br (0.0, 2.92, 2.92) [-0.0, 0.5, 0.5]]",199.07497852024176,"[Element Cs, Element Sn, Element Br, Element Br, Element Br]",True,False,-1.6137550945862067,0.0,0.5984
1739,mp,mp-21058.cif,Mn3 In1 C1,Mn3InC,Pm-3m,5.081511,5.081511,5.081511,90.0,90.0,90.0,"(True, True, True)","[PeriodicSite: Mn (0.0, 2.541, 2.541) [0.0, 0.5, 0.5], PeriodicSite: Mn (2.541, 2.541, 0.0) [0.5, 0.5, 0.0], PeriodicSite: Mn (2.541, 0.0, 2.541) [0.5, 0.0, 0.5], PeriodicSite: In (2.541, 2.541, 2.541) [0.5, 0.5, 0.5], PeriodicSite: C (0.0, 0.0, 0.0) [0.0, 0.0, 0.0]]",131.21352720941383,"[Element Mn, Element Mn, Element Mn, Element In, Element C]",False,True,2.341481283741379,2.4126517878478246,0.0
1740,mp,mp-5020.cif,Ba1 Ti1 O3,BaTiO3,R3m,4.033806554507884,4.033805892924775,4.033806146413204,89.83638279997638,89.83636957742058,89.83638729523724,"(True, True, True)","[PeriodicSite: Ba (4.045, 4.036, 4.054) [0.9999, 0.9999, 0.9999], PeriodicSite: Ti (1.969, 1.964, 1.973) [0.4867, 0.4867, 0.4867], PeriodicSite: O (0.08769, 2.062, 2.067) [0.02028, 0.511, 0.511], PeriodicSite: O (2.067, 2.062, 0.09238) [0.511, 0.511, 0.02028], PeriodicSite: O (2.062, 0.08303, 2.067) [0.511, 0.02028, 0.511]]",65.6356490658401,"[Element Ba, Element Ti, Element O, Element O, Element O]",True,False,-3.4930003639166665,0.0,2.5086999999999997
1741,mp,mp-975386.cif,Rb1 Dy1 O3,RbDyO3,Pm-3m,4.519148,4.519148,4.519148,90.0,90.0,90.0,"(True, True, True)","[PeriodicSite: Rb (0.0, 0.0, 0.0) [0.0, 0.0, 0.0], PeriodicSite: Dy (2.26, 2.26, 2.26) [0.5, 0.5, 0.5], PeriodicSite: O (2.26, 2.26, 0.0) [0.5, 0.5, 0.0], PeriodicSite: O (2.26, 0.0, 2.26) [0.5, 0.0, 0.5], PeriodicSite: O (0.0, 2.26, 2.26) [0.0, 0.5, 0.5]]",92.29319774023979,"[Element Rb, Element Dy, Element O, Element O, Element O]",False,True,-2.28863281675,0.2552479879999998,0.0
1742,mp,mp-19881.cif,Dy3 In1 C1,Dy3InC,Pm-3m,4.9031569,4.9031569,4.9031569,90.0,90.0,90.0,"(True, True, True)","[PeriodicSite: Dy (2.452, 0.0, 2.452) [0.5, 0.0, 0.5], PeriodicSite: Dy (2.452, 2.452, 0.0) [0.5, 0.5, 0.0], PeriodicSite: Dy (0.0, 2.452, 2.452) [0.0, 0.5, 0.5], PeriodicSite: In (0.0, 0.0, 0.0) [0.0, -0.0, 0.0], PeriodicSite: C (2.452, 2.452, 2.452) [0.5, 0.5, 0.5]]",117.87653803892059,"[Element Dy, Element Dy, Element Dy, Element In, Element C]",True,False,-0.4938871395000007,0.0,0.0
1743,mp,mp-1503976.cif,Y1 Mo1 O3,YMoO3,Pm-3m,4.088208,4.088208,4.088208,90.0,90.0,90.0,"(True, True, True)","[PeriodicSite: Y (0.0, 0.0, 0.0) [0.0, 0.0, 0.0], PeriodicSite: Mo (2.044, 2.044, 2.044) [0.5, 0.5, 0.5], PeriodicSite: O (2.044, 2.044, 0.0) [0.5, 0.5, 0.0], PeriodicSite: O (2.044, 0.0, 2.044) [0.5, 0.0, 0.5], PeriodicSite: O (0.0, 2.044, 2.044) [0.0, 0.5, 0.5]]",68.32803813085468,"[Element Y, Element Mo, Element O, Element O, Element O]",False,True,-2.3225762165833332,0.6047194465937444,0.0
1744,mp,mp-867844.cif,Rb1 Ag1 F3,RbAgF3,Cmmm,4.295127693697593,4.295127693697593,4.364427,90.0,90.0,104.56623398074149,"(True, True, True)","[PeriodicSite: Rb (2.628, 0.0, 2.182) [0.5, 0.5, 0.5], PeriodicSite: Ag (0.0, 0.0, 0.0) [0.0, 0.0, 0.0], PeriodicSite: F (1.314, -1.699, 0.0) [0.5, 0.0, 0.0], PeriodicSite: F (1.314, 1.699, 0.0) [0.0, 0.5, 0.0], PeriodicSite: F (0.0, 0.0, 2.182) [0.0, 0.0, 0.5]]",77.92751683188361,"[Element Rb, Element Ag, Element F, Element F, Element F]",False,False,-2.0188238343333333,0.11323745699999943,0.0
1745,mp,mp-4982.cif,Sm1 B1 Rh3,SmBRh3,Pm-3m,4.20876944,4.20876944,4.20876944,90.0,90.0,90.0,"(True, True, True)","[PeriodicSite: Sm (0.0, 0.0, 0.0) [0.0, 0.0, 0.0], PeriodicSite: B (2.104, 2.104, 2.104) [0.5, 0.5, 0.5], PeriodicSite: Rh (0.0, 2.104, 2.104) [0.0, 0.5, 0.5], PeriodicSite: Rh (2.104, 2.104, 0.0) [0.5, 0.5, 0.0], PeriodicSite: Rh (2.104, 0.0, 2.104) [0.5, 0.0, 0.5]]",74.55304841797864,"[Element Sm, Element B, Element Rh, Element Rh, Element Rh]",True,False,-0.7348071148333346,0.0,0.0
1746,mp,mp-22542.cif,Tm3 Pb1 C1,Tm3PbC,Pm-3m,4.80484245,4.80484245,4.80484245,90.0,90.0,90.0,"(True, True, True)","[PeriodicSite: Tm (2.402, 0.0, 2.402) [0.5, -0.0, 0.5], PeriodicSite: Tm (0.0, 2.402, 2.402) [-0.0, 0.5, 0.5], PeriodicSite: Tm (2.402, 2.402, 0.0) [0.5, 0.5, -0.0], PeriodicSite: Pb (0.0, 0.0, 0.0) [0.0, 0.0, 0.0], PeriodicSite: C (2.402, 2.402, 2.402) [0.5, 0.5, 0.5]]",110.92704792778899,"[Element Tm, Element Tm, Element Tm, Element Pb, Element C]",True,False,-0.5624922394999998,0.0,0.0
1747,mp,mp-2649045.cif,Cs1 In1 Br3,CsInBr3,P4mm,5.69175635,5.69175635,5.68992117,90.0,90.0,90.0,"(True, True, True)","[PeriodicSite: Cs (2.846, 2.846, 0.03631) [0.5, 0.5, 0.006382], PeriodicSite: In (0.0, 0.0, 2.926) [0.0, -0.0, 0.5143], PeriodicSite: Br (0.0, 2.846, 2.922) [0.0, 0.5, 0.5135], PeriodicSite: Br (0.0, 0.0, 0.07989) [0.0, -0.0, 0.01404], PeriodicSite: Br (2.846, 0.0, 2.922) [0.5, -0.0, 0.5135]]",184.33120029498258,"[Element Cs, Element In, Element Br, Element Br, Element Br]",False,False,-1.5807907275862072,0.01984568600000003,0.0
1748,mp,mp-676851.cif,K1 N1 O3,KNO3,R32,4.566025342331575,4.566025342331575,4.566025712929747,74.35728749026944,74.35728749026944,74.35729053421649,"(True, True, True)","[PeriodicSite: K (4.412, 0.0, 2.145) [0.5, 0.5, 0.5], PeriodicSite: N (0.0, 0.0, 0.0) [-0.0, 0.0, 0.0], PeriodicSite: O (3.161, -2.129, 0.9785) [0.7717, 0.0, 0.2283], PeriodicSite: O (2.026, 0.63, 3.314) [-0.0, 0.2283, 0.7717], PeriodicSite: O (3.638, 1.499, -0.002853) [0.2283, 0.7717, 0.0]]",86.26040384144711,"[Element K, Element N, Element O, Element O, Element O]",False,False,-1.41639815085,0.01105454150000007,3.0469999999999997
1749,mp,mp-977123.cif,Na1 Ti1 O3,NaTiO3,Pm-3m,3.902333,3.902333,3.902333,90.0,90.0,90.0,"(True, True, True)","[PeriodicSite: Na (0.0, 0.0, 0.0) [0.0, 0.0, 0.0], PeriodicSite: Ti (1.951, 1.951, 1.951) [0.5, 0.5, 0.5], PeriodicSite: O (1.951, 1.951, 0.0) [0.5, 0.5, 0.0], PeriodicSite: O (1.951, 0.0, 1.951) [0.5, 0.0, 0.5], PeriodicSite: O (0.0, 1.951, 1.951) [0.0, 0.5, 0.5]]",59.42551848449956,"[Element Na, Element Ti, Element O, Element O, Element O]",False,True,-2.6444112232270123,0.08975729882499817,0.0
1750,mp,mp-570290.cif,Mn1 Tl1 Cl3,MnTlCl3,Pm-3m,5.069273,5.069273,5.069273,90.0,90.0,90.0,"(True, True, True)","[PeriodicSite: Mn (2.535, 2.535, 2.535) [0.5, 0.5, 0.5], PeriodicSite: Tl (0.0, 0.0, 0.0) [0.0, 0.0, 0.0], PeriodicSite: Cl (0.0, 2.535, 2.535) [0.0, 0.5, 0.5], PeriodicSite: Cl (2.535, 2.535, 0.0) [0.5, 0.5, 0.0], PeriodicSite: Cl (2.535, 0.0, 2.535) [0.5, 0.0, 0.5]]",130.26778865164184,"[Element Mn, Element Tl, Element Cl, Element Cl, Element Cl]",False,True,-1.412599722252874,0.02930777799999973,1.1477
1751,mp,mp-5777.cif,Ba1 Ti1 O3,BaTiO3,Amm2,3.98333387,4.0573426446750185,4.0573423579991434,90.25451681616495,90.0,90.0,"(True, True, True)","[PeriodicSite: Ba (0.0, 0.01021, 4.043) [0.0, 0.003414, 0.9966], PeriodicSite: Ti (1.992, 2.102, 1.946) [0.5, 0.5185, 0.4815], PeriodicSite: O (1.992, 1.993, 0.08048) [0.5, 0.4914, 0.02157], PeriodicSite: O (1.992, 3.968, 2.05) [0.5, 0.9784, 0.5086], PeriodicSite: O (0.0, 1.979, 2.07) [0.0, 0.4882, 0.5118]]",65.57310741671338,"[Element Ba, Element Ti, Element O, Element O, Element O]",False,False,-3.4925271839166663,0.000473180000000184,2.2929999999999997
1752,mp,mp-975588.cif,Pu1 Pt1 O3,PuPtO3,Pm-3m,4.054549,4.054549,4.054549,90.0,90.0,90.0,"(True, True, True)","[PeriodicSite: Pu (2.027, 2.027, 2.027) [0.5, 0.5, 0.5], PeriodicSite: Pt (0.0, 0.0, 0.0) [0.0, 0.0, 0.0], PeriodicSite: O (0.0, 0.0, 2.027) [0.0, 0.0, 0.5], PeriodicSite: O (0.0, 2.027, 0.0) [0.0, 0.5, 0.0], PeriodicSite: O (2.027, 0.0, 0.0) [0.5, 0.0, 0.0]]",66.65422143645642,"[Element Pu, Element Pt, Element O, Element O, Element O]",False,True,-1.6183014732499985,0.8616949345000062,0.0
1753,mp,mp-554465.cif,Rb1 Fe1 F3,RbFeF3,Pm-3m,4.220695,4.220695,4.220695,90.0,90.0,90.0,"(True, True, True)","[PeriodicSite: Rb (0.0, 0.0, 0.0) [0.0, 0.0, 0.0], PeriodicSite: Fe (2.11, 2.11, 2.11) [0.5, 0.5, 0.5], PeriodicSite: F (0.0, 2.11, 2.11) [0.0, 0.5, 0.5], PeriodicSite: F (2.11, 0.0, 2.11) [0.5, 0.0, 0.5], PeriodicSite: F (2.11, 2.11, 0.0) [0.5, 0.5, 0.0]]",75.18858462943221,"[Element Rb, Element Fe, Element F, Element F, Element F]",False,True,-2.491835549,0.2661429584999997,0.0
1754,mp,mp-16297.cif,Sc3 Sn1 C1,Sc3SnC,Pm-3m,4.53027743,4.53027743,4.53027743,90.0,90.0,90.0,"(True, True, True)","[PeriodicSite: Sc (0.0, 2.265, 2.265) [0.0, 0.5, 0.5], PeriodicSite: Sc (2.265, 2.265, 0.0) [0.5, 0.5, 0.0], PeriodicSite: Sc (2.265, 0.0, 2.265) [0.5, 0.0, 0.5], PeriodicSite: Sn (0.0, 0.0, 0.0) [0.0, -0.0, 0.0], PeriodicSite: C (2.265, 2.265, 2.265) [0.5, 0.5, 0.5]]",92.97675738586938,"[Element Sc, Element Sc, Element Sc, Element Sn, Element C]",True,False,-0.7893433255000005,0.0,0.0
1755,mp,mp-975236.cif,Rb1 Pt1 O3,RbPtO3,Pm-3m,4.105072,4.105072,4.105072,90.0,90.0,90.0,"(True, True, True)","[PeriodicSite: Rb (0.0, 0.0, 0.0) [0.0, 0.0, 0.0], PeriodicSite: Pt (2.053, 2.053, 2.053) [0.5, 0.5, 0.5], PeriodicSite: O (2.053, 2.053, 0.0) [0.5, 0.5, 0.0], PeriodicSite: O (2.053, 0.0, 2.053) [0.5, 0.0, 0.5], PeriodicSite: O (0.0, 2.053, 2.053) [0.0, 0.5, 0.5]]",69.17709751024132,"[Element Rb, Element Pt, Element O, Element O, Element O]",False,True,-0.8896996907499997,0.1602229839999989,0.0
1756,mp,mp-975308.cif,Rb1 Gd1 O3,RbGdO3,Pm-3m,4.472071,4.472071,4.472071,90.0,90.0,90.0,"(True, True, True)","[PeriodicSite: Rb (0.0, 0.0, 0.0) [0.0, 0.0, 0.0], PeriodicSite: Gd (2.236, 2.236, 2.236) [0.5, 0.5, 0.5], PeriodicSite: O (2.236, 2.236, 0.0) [0.5, 0.5, 0.0], PeriodicSite: O (2.236, 0.0, 2.236) [0.5, 0.0, 0.5], PeriodicSite: O (0.0, 2.236, 2.236) [0.0, 0.5, 0.5]]",89.4388218566224,"[Element Rb, Element Gd, Element O, Element O, Element O]",False,True,-2.3098103147500004,0.1769357584999991,0.0
1757,mp,mp-19828.cif,Pu1 Ru3 C1,PuRu3C,Pm-3m,4.167104,4.167104,4.167104,90.0,90.0,90.0,"(True, True, True)","[PeriodicSite: Pu (0.0, 0.0, 0.0) [0.0, 0.0, 0.0], PeriodicSite: Ru (0.0, 2.084, 2.084) [0.0, 0.5, 0.5], PeriodicSite: Ru (2.084, 2.084, 0.0) [0.5, 0.5, 0.0], PeriodicSite: Ru (2.084, 0.0, 2.084) [0.5, 0.0, 0.5], PeriodicSite: C (2.084, 2.084, 2.084) [0.5, 0.5, 0.5]]",72.36074313157995,"[Element Pu, Element Ru, Element Ru, Element Ru, Element C]",False,True,0.23491029850000017,0.2703632264999989,0.0
1758,mp,mp-998226.cif,Rb1 Ag1 Br3,RbAgBr3,Cm,5.446824444970574,5.446824444970574,5.447169746515065,89.87304177322677,89.87304177322677,90.00257359589709,"(True, True, True)","[PeriodicSite: Rb (0.0, 7.702, 0.01595) [0.9999, 0.9999, 0.002929], PeriodicSite: Ag (0.0, 3.829, 2.811) [0.496, 0.496, 0.5161], PeriodicSite: Br (1.951, 5.753, 2.801) [0.999, 0.4924, 0.5142], PeriodicSite: Br (0.0, 3.887, 0.08595) [0.5045, 0.5045, 0.01578], PeriodicSite: Br (-1.951, 5.753, 2.801) [0.4924, 0.999, 0.5142]]",161.60527476866693,"[Element Rb, Element Ag, Element Br, Element Br, Element Br]",True,False,-1.2613936648333333,0.0,0.0
1759,mp,mp-2464440.cif,K1 Ag1 Cl3,KAgCl3,P4mm,5.12817365,5.12817365,5.12884144,90.0,90.0,90.0,"(True, True, True)","[PeriodicSite: K (2.564, 2.564, 5.088) [0.5, 0.5, 0.9921], PeriodicSite: Ag (0.0, 0.0, 2.496) [0.0, 0.0, 0.4867], PeriodicSite: Cl (2.564, 0.0, 2.494) [0.5, 0.0, 0.4863], PeriodicSite: Cl (0.0, 0.0, 5.06) [-0.0, 0.0, 0.9866], PeriodicSite: Cl (0.0, 2.564, 2.494) [-0.0, 0.5, 0.4863]]",134.87911836873917,"[Element K, Element Ag, Element Cl, Element Cl, Element Cl]",False,False,-1.3928603899333332,0.00379570100000004,0.0
1760,mp,mp-20029.cif,Sr1 Cr1 O3,SrCrO3,Pm-3m,3.893204,3.893204,3.893204,90.0,90.0,90.0,"(True, True, True)","[PeriodicSite: Sr (1.947, 1.947, 1.947) [0.5, 0.5, 0.5], PeriodicSite: Cr (0.0, 0.0, 0.0) [0.0, 0.0, 0.0], PeriodicSite: O (1.947, 0.0, 0.0) [0.5, 0.0, 0.0], PeriodicSite: O (0.0, 1.947, 0.0) [0.0, 0.5, 0.0], PeriodicSite: O (0.0, 0.0, 1.947) [0.0, 0.0, 0.5]]",59.00943857782975,"[Element Sr, Element Cr, Element O, Element O, Element O]",False,True,-2.573105988583334,0.07254508193749665,0.0
1761,mp,mp-20159.cif,Ce3 Sn1 C1,Ce3SnC,Pm-3m,5.843293,5.843293,5.843293,90.0,90.0,90.0,"(True, True, True)","[PeriodicSite: Ce (2.922, 2.922, 0.0) [0.5, 0.5, 0.0], PeriodicSite: Ce (2.922, 0.0, 2.922) [0.5, 0.0, 0.5], PeriodicSite: Ce (0.0, 2.922, 2.922) [0.0, 0.5, 0.5], PeriodicSite: Sn (2.922, 2.922, 2.922) [0.5, 0.5, 0.5], PeriodicSite: C (0.0, 0.0, 0.0) [0.0, 0.0, 0.0]]",199.51382324234328,"[Element Ce, Element Ce, Element Ce, Element Sn, Element C]",False,True,1.6155340144999997,2.007927047666665,0.0
1762,mp,mp-998745.cif,Tl1 Zn1 F3,TlZnF3,Pm,4.1244615563343885,4.11502468078564,4.117341669414059,89.97427477847381,89.96413590151036,89.98168307102594,"(True, True, True)","[PeriodicSite: Tl (-4.11, -4.074, -4.114) [0.9891, 0.9993, 0.996], PeriodicSite: Zn (-2.057, -2.01, -2.06) [0.488, 0.5001, 0.4987], PeriodicSite: F (-0.0002793, -2.007, -2.053) [0.4874, 0.000263, 0.4977], PeriodicSite: F (-2.058, -4.071, -2.066) [0.9877, 0.5002, 0.4992], PeriodicSite: F (-2.056, -2.006, -4.117) [0.4878, 0.5001, 0.9984]]",69.88057354988399,"[Element Tl, Element Zn, Element F, Element F, Element F]",True,False,-2.3711268521666664,0.0,3.9179
1763,mp,mp-985545.cif,Co1 Te1 O3,CoTeO3,Pm-3m,3.779381,3.779381,3.779381,90.0,90.0,90.0,"(True, True, True)","[PeriodicSite: Co (0.0, 0.0, 0.0) [0.0, 0.0, 0.0], PeriodicSite: Te (1.89, 1.89, 1.89) [0.5, 0.5, 0.5], PeriodicSite: O (0.0, 0.0, 1.89) [0.0, 0.0, 0.5], PeriodicSite: O (0.0, 1.89, 0.0) [0.0, 0.5, 0.0], PeriodicSite: O (1.89, 0.0, 0.0) [0.5, 0.0, 0.0]]",53.98362278600855,"[Element Co, Element Te, Element O, Element O, Element O]",False,True,-0.7397402775833342,0.7135155664999999,0.0
1764,mp,mp-998623.cif,Tl1 Cd1 F3,TlCdF3,P1,4.418730675280331,4.419278366132936,4.430989125414975,89.95341941650182,90.1154658835534,90.09547893241557,"(True, True, True)","[PeriodicSite: Tl (-4.268, -0.01873, -4.259) [0.01433, 0.9686, 0.9575], PeriodicSite: Cd (-2.178, -2.152, -2.19) [0.4922, 0.4941, 0.4892], PeriodicSite: F (0.01545, -2.067, -2.341) [0.4723, -0.002048, 0.5253], PeriodicSite: F (-2.288, -4.347, -2.356) [0.9893, 0.5191, 0.5234], PeriodicSite: F (-2.286, -2.043, -4.429) [0.4719, 0.5202, 0.9946]]",86.5262629373115,"[Element Tl, Element Cd, Element F, Element F, Element F]",False,False,-2.2906739781666667,0.008797312250003131,4.2415
1765,mp,mp-998196.cif,Rb1 Cu1 Br3,RbCuBr3,Pm,5.146886029768255,5.153862302056752,5.132402376258366,90.0134816168938,90.0583195903221,90.02353057428243,"(True, True, True)","[PeriodicSite: Rb (-2.137, 2.971, 3.555) [0.005669, 0.9898, 0.01454], PeriodicSite: Cu (-4.231, 1.477, -0.07766) [0.5051, 0.4904, 0.5144], PeriodicSite: Br (-3.186, -0.008387, 1.741) [0.5063, 0.4905, 0.01353], PeriodicSite: Br (-5.286, 2.957, 1.747) [0.5064, 0.9899, 0.5134], PeriodicSite: Br (-2.136, 2.959, -0.08225) [0.006476, 0.4894, 0.5141]]",136.14377431777643,"[Element Rb, Element Cu, Element Br, Element Br, Element Br]",False,True,-1.2511377095,0.013992915999999411,0.0
1766,mp,mp-998601.cif,K1 Ca1 Cl3,KCaCl3,Cm,5.407372224918588,5.407372224918588,5.406517025782218,89.99604413305211,89.99604413305211,90.02171299600045,"(True, True, True)","[PeriodicSite: K (0.0, 7.631, 8.11e-05) [0.998, 0.998, 1.5e-05], PeriodicSite: Ca (0.0, 3.807, 2.783) [0.4979, 0.4979, 0.5148], PeriodicSite: Cl (1.927, 5.715, 2.796) [0.9994, 0.4955, 0.5172], PeriodicSite: Cl (0.0, 3.879, 0.08034) [0.5073, 0.5073, 0.01486], PeriodicSite: Cl (-1.927, 5.715, 2.796) [0.4955, 0.9994, 0.5172]]",158.08478525203168,"[Element K, Element Ca, Element Cl, Element Cl, Element Cl]",False,False,-2.5653103685999996,0.04566617850000032,4.7457
1767,mp,mp-570591.cif,Cs1 Hg1 Cl3,CsHgCl3,Pm-3m,5.402792,5.402792,5.402792,90.0,90.0,90.0,"(True, True, True)","[PeriodicSite: Cs (0.0, 0.0, 0.0) [0.0, 0.0, 0.0], PeriodicSite: Hg (2.701, 2.701, 2.701) [0.5, 0.5, 0.5], PeriodicSite: Cl (0.0, 2.701, 2.701) [0.0, 0.5, 0.5], PeriodicSite: Cl (2.701, 2.701, 0.0) [0.5, 0.5, 0.0], PeriodicSite: Cl (2.701, 0.0, 2.701) [0.5, 0.0, 0.5]]",157.70837046504116,"[Element Cs, Element Hg, Element Cl, Element Cl, Element Cl]",False,False,-1.523901230586207,0.032840399333323056,0.0
1768,mp,mp-982885.cif,K1 Ca1 O3,KCaO3,Pm-3m,4.568674,4.568674,4.568674,90.0,90.0,90.0,"(True, True, True)","[PeriodicSite: K (0.0, 0.0, 0.0) [0.0, 0.0, 0.0], PeriodicSite: Ca (2.284, 2.284, 2.284) [0.5, 0.5, 0.5], PeriodicSite: O (2.284, 2.284, 0.0) [0.5, 0.5, 0.0], PeriodicSite: O (2.284, 0.0, 2.284) [0.5, 0.0, 0.5], PeriodicSite: O (0.0, 2.284, 2.284) [0.0, 0.5, 0.5]]",95.36093697143247,"[Element K, Element Ca, Element O, Element O, Element O]",False,True,-1.4758990978500002,0.43958229599999754,0.0
1769,mp,mp-8074.cif,Ta1 Sn1 O3,TaSnO3,Pm-3m,4.072593,4.072593,4.072593,90.0,90.0,90.0,"(True, True, True)","[PeriodicSite: Ta (2.036, 2.036, 2.036) [0.5, 0.5, 0.5], PeriodicSite: Sn (0.0, 0.0, 0.0) [0.0, 0.0, 0.0], PeriodicSite: O (2.036, 0.0, 2.036) [0.5, 0.0, 0.5], PeriodicSite: O (2.036, 2.036, 0.0) [0.5, 0.5, 0.0], PeriodicSite: O (0.0, 2.036, 2.036) [0.0, 0.5, 0.5]]",67.54808347028872,"[Element Ta, Element Sn, Element O, Element O, Element O]",False,False,-2.3626570562500007,0.2989471735000091,0.0