,provider,id,Full_Formula,formula,space_group,a_lattice_param,b_lattice_param,c_lattice_param,aplha_degree,beta_degree,gamma_degree,pbc,sits,volume,species_at_sites,is_stable,is_magnetic,formation_energy,energy_above_hull,band_gap
1516,mp,mp-15856.cif,Dy1 Rh3 C1,DyRh3C,Pm-3m,4.14780277,4.14780277,4.14780277,90.0,90.0,90.0,"(True, True, True)","[PeriodicSite: Dy (0.0, 0.0, 0.0) [0.0, -0.0, -0.0], PeriodicSite: Rh (0.0, 2.074, 2.074) [-0.0, 0.5, 0.5], PeriodicSite: Rh (2.074, 2.074, 0.0) [0.5, 0.5, -0.0], PeriodicSite: Rh (2.074, 0.0, 2.074) [0.5, -0.0, 0.5], PeriodicSite: C (2.074, 2.074, 2.074) [0.5, 0.5, 0.5]]",71.35990971472211,"[Element Dy, Element Rh, Element Rh, Element Rh, Element C]",True,False,-0.5052948875000013,0.0,0.0
1517,mp,mp-1226471.cif,Ce1 Zn1 Ga3,CeZnGa3,I-4m2,4.28276,4.28276,6.172314939390569,69.70015940039275,69.70015940039275,90.0,"(True, True, True)","[PeriodicSite: Ce (0.0, 0.0, 0.0) [0.0, 0.0, 0.0], PeriodicSite: Zn (4.283, 2.141, 2.689) [0.75, 0.25, 0.5], PeriodicSite: Ga (2.141, 2.141, 1.243) [0.3845, 0.3845, 0.231], PeriodicSite: Ga (4.283, 4.283, 4.136) [0.6155, 0.6155, 0.769], PeriodicSite: Ga (2.141, 4.283, 2.689) [0.25, 0.75, 0.5]]",98.64954419928104,"[Element Ce, Element Zn, Element Ga, Element Ga, Element Ga]",False,True,-0.4359737974999994,0.010980789363634003,0.0
1518,mp,mp-574250.cif,In1 Si1 Te3,InSiTe3,P3,7.38902717097596,7.38902717097596,5.196314,90.0,90.0,119.99999257712975,"(True, True, True)","[PeriodicSite: In (3.695, 2.133, 2.41) [0.3333, 0.6667, 0.4638], PeriodicSite: Si (0.0, 0.0, 1.431) [0.0, 0.0, 0.2754], PeriodicSite: Te (2.424, -0.3581, 1.387) [0.3561, 0.3001, 0.267], PeriodicSite: Te (2.793, -4.121, 1.387) [0.6999, 0.05596, 0.267], PeriodicSite: Te (5.867, -1.92, 1.387) [0.944, 0.6439, 0.267]]",245.69740963954564,"[Element In, Element Si, Element Te, Element Te, Element Te]",False,False,-0.11459538600000059,0.348779665000003,0.0
1519,mp,mp-6920.cif,K1 N1 O3,KNO3,R3m,4.2814102106257055,4.281409785183117,4.28140972804081,78.95475928192295,78.95478237933067,78.95476201552412,"(True, True, True)","[PeriodicSite: K (0.003093, 0.002686, 0.003647) [0.0006288, 0.0006288, 0.0006288], PeriodicSite: N (2.137, 1.856, 2.52) [0.4345, 0.4345, 0.4345], PeriodicSite: O (2.529, 0.7497, 2.982) [0.5667, 0.1655, 0.5667], PeriodicSite: O (2.763, 2.399, 1.569) [0.5667, 0.5667, 0.1655], PeriodicSite: O (1.097, 2.399, 2.982) [0.1655, 0.5667, 0.5667]]",74.61614758460318,"[Element K, Element N, Element O, Element O, Element O]",False,False,-1.4250021328499998,0.0024505595000006153,2.9813
1520,mp,mp-9721.cif,Ca3 Ge1 O1,Ca3GeO,Pm-3m,4.71483028,4.71483028,4.71483028,90.0,90.0,90.0,"(True, True, True)","[PeriodicSite: Ca (2.357, 2.357, 0.0) [0.5, 0.5, -0.0], PeriodicSite: Ca (2.357, 0.0, 2.357) [0.5, -0.0, 0.5], PeriodicSite: Ca (0.0, 2.357, 2.357) [-0.0, 0.5, 0.5], PeriodicSite: Ge (0.0, 0.0, 0.0) [-0.0, -0.0, -0.0], PeriodicSite: O (2.357, 2.357, 2.357) [0.5, 0.5, 0.5]]",104.80890703191913,"[Element Ca, Element Ca, Element Ca, Element Ge, Element O]",True,False,-1.70490652875,0.0,0.0
1521,mp,mp-998307.cif,Cs1 Pd1 Br3,CsPdBr3,Pm,5.278741727644862,5.279763407400539,5.280560991901531,90.01324860939867,90.0165407865899,89.9962693024117,"(True, True, True)","[PeriodicSite: Cs (5.277, 0.06459, 0.006846) [0.9997, 0.0121, 0.001421], PeriodicSite: Pd (2.639, 2.704, 2.652) [0.5001, 0.5121, 0.5023], PeriodicSite: Br (-0.0002027, 2.702, 2.647) [8.225e-05, 0.5118, 0.5014], PeriodicSite: Br (2.639, 0.06346, 2.652) [0.5, 0.01193, 0.5022], PeriodicSite: Br (2.64, 2.704, 0.01275) [0.5001, 0.5121, 0.002621]]",147.1719038789495,"[Element Cs, Element Pd, Element Br, Element Br, Element Br]",True,False,-1.2886002775862067,0.0,0.0
1522,mp,mp-636273.cif,Nd3 Ga1 N1,Nd3GaN,Pm-3m,5.505059,5.505059,5.505059,90.0,90.0,90.0,"(True, True, True)","[PeriodicSite: Nd (0.0, 0.0, 2.753) [0.0, 0.0, 0.5], PeriodicSite: Nd (0.0, 2.753, 0.0) [0.0, 0.5, 0.0], PeriodicSite: Nd (2.753, 0.0, 0.0) [0.5, 0.0, 0.0], PeriodicSite: Ga (0.0, 0.0, 0.0) [0.0, 0.0, 0.0], PeriodicSite: N (2.753, 2.753, 2.753) [0.5, 0.5, 0.5]]",166.83452667191392,"[Element Nd, Element Nd, Element Nd, Element Ga, Element N]",False,False,0.8807330069999999,1.7339401148749998,0.0
1523,mp,mp-23026.cif,Cs1 Au1 Cl3,CsAuCl3,Pm-3m,5.206833,5.206833,5.206833,90.0,90.0,90.0,"(True, True, True)","[PeriodicSite: Cs (2.603, 2.603, 2.603) [0.5, 0.5, 0.5], PeriodicSite: Au (0.0, 0.0, 0.0) [0.0, 0.0, 0.0], PeriodicSite: Cl (0.0, 0.0, 2.603) [0.0, 0.0, 0.5], PeriodicSite: Cl (2.603, 0.0, 0.0) [0.5, 0.0, 0.0], PeriodicSite: Cl (0.0, 2.603, 0.0) [0.0, 0.5, 0.0]]",141.1630216413004,"[Element Cs, Element Au, Element Cl, Element Cl, Element Cl]",False,False,-1.3433583255862072,0.07064334399999961,0.0
1524,mp,mp-998391.cif,Rb1 Tl1 Br3,RbTlBr3,Cm,5.836054919141868,5.836054919141868,5.833034044687207,89.96607962866723,89.96607962866723,90.0074418866381,"(True, True, True)","[PeriodicSite: Rb (0.0, 8.231, 0.006498) [0.9974, 0.9974, 0.001114], PeriodicSite: Tl (0.0, 4.09, 3.017) [0.4953, 0.4953, 0.5172], PeriodicSite: Br (2.078, 6.172, 3.002) [0.9993, 0.4958, 0.5147], PeriodicSite: Br (0.0, 4.198, 0.09314) [0.5087, 0.5087, 0.01597], PeriodicSite: Br (-2.078, 6.172, 3.002) [0.4958, 0.9993, 0.5147]]",198.67036766260475,"[Element Rb, Element Tl, Element Br, Element Br, Element Br]",False,False,-1.4453437041666668,0.023713999749999992,0.0
1525,mp,mp-998227.cif,K1 Hf1 O3,KHfO3,Pm-3m,4.177954,4.177954,4.177954,90.0,90.0,90.0,"(True, True, True)","[PeriodicSite: K (2.089, 2.089, 2.089) [0.5, 0.5, 0.5], PeriodicSite: Hf (0.0, 0.0, 0.0) [0.0, 0.0, 0.0], PeriodicSite: O (2.089, 0.0, 0.0) [0.5, 0.0, 0.0], PeriodicSite: O (0.0, 2.089, 0.0) [0.0, 0.5, 0.0], PeriodicSite: O (0.0, 0.0, 2.089) [0.0, 0.0, 0.5]]",72.92743889412984,"[Element K, Element Hf, Element O, Element O, Element O]",False,True,-2.94818704785,0.04090627174999817,0.0
1526,mp,mp-865218.cif,Yb1 Ti1 O3,YbTiO3,Pm-3m,3.853081,3.853081,3.853081,90.0,90.0,90.0,"(True, True, True)","[PeriodicSite: Yb (0.0, 0.0, 0.0) [0.0, 0.0, 0.0], PeriodicSite: Ti (1.927, 1.927, 1.927) [0.5, 0.5, 0.5], PeriodicSite: O (1.927, 1.927, 0.0) [0.5, 0.5, 0.0], PeriodicSite: O (1.927, 0.0, 1.927) [0.5, 0.0, 0.5], PeriodicSite: O (0.0, 1.927, 1.927) [0.0, 0.5, 0.5]]",57.20373903582613,"[Element Yb, Element Ti, Element O, Element O, Element O]",False,False,-3.636964475916666,0.09722004799999873,1.8974999999999995
1527,mp,mp-998325.cif,Rb1 Ca1 I3,RbCaI3,Cm,6.210137720178032,6.210137720178032,6.207693176575337,89.9589944176459,89.9589944176459,89.94564297485023,"(True, True, True)","[PeriodicSite: Rb (0.0, 0.01527, 6.208) [0.001023, 0.001023, 1.0], PeriodicSite: Ca (0.0, 4.453, 3.216) [0.5065, 0.5065, 0.5181], PeriodicSite: I (-2.206, 2.226, 3.188) [0.00166, 0.5043, 0.5135], PeriodicSite: I (0.0, 4.32, 0.1053) [0.4917, 0.4917, 0.01697], PeriodicSite: I (2.206, 2.226, 3.188) [0.5043, 0.00166, 0.5135]]",239.40448846704473,"[Element Rb, Element Ca, Element I, Element I, Element I]",False,False,-1.7996431294999997,0.045907285999999825,3.4334
1528,mp,mp-973968.cif,K1 Na1 O3,KNaO3,Pm-3m,4.439773,4.439773,4.439773,90.0,90.0,90.0,"(True, True, True)","[PeriodicSite: K (2.22, 2.22, 2.22) [0.5, 0.5, 0.5], PeriodicSite: Na (0.0, 0.0, 0.0) [0.0, 0.0, 0.0], PeriodicSite: O (0.0, 0.0, 2.22) [0.0, 0.0, 0.5], PeriodicSite: O (0.0, 2.22, 0.0) [0.0, 0.5, 0.0], PeriodicSite: O (2.22, 0.0, 0.0) [0.5, 0.0, 0.0]]",87.51495972475456,"[Element K, Element Na, Element O, Element O, Element O]",False,True,-0.5051734671603448,0.6109778246666688,0.0
1529,mp,mp-27249.cif,Cu1 C1 O3,CuCO3,Cm,4.64141824236515,4.64141824236515,3.0915367448937103,82.3263194954532,82.3263194954532,62.57684320277632,"(True, True, True)","[PeriodicSite: Cu (0.0, 3.723, 1.642) [0.4365, 0.4365, 0.5379], PeriodicSite: C (0.0, 0.5999, 2.716) [0.02146, 0.02146, 0.8894], PeriodicSite: O (-1.29, 3.496, 0.06835) [0.1716, 0.7069, 0.02238], PeriodicSite: O (1.29, 3.496, 0.06835) [0.7069, 0.1716, 0.02238], PeriodicSite: O (0.0, 1.513, 1.872) [0.1534, 0.1534, 0.6129]]",58.39017677351736,"[Element Cu, Element C, Element O, Element O, Element O]",False,True,-1.2991681167500004,0.14041067800000384,0.0
1530,mp,mp-23949.cif,Rb1 Ca1 H3,RbCaH3,Pm-3m,4.52097295,4.52097295,4.52097295,90.0,90.0,90.0,"(True, True, True)","[PeriodicSite: Rb (0.0, 0.0, 0.0) [-0.0, -0.0, -0.0], PeriodicSite: Ca (2.26, 2.26, 2.26) [0.5, 0.5, 0.5], PeriodicSite: H (2.26, 0.0, 2.26) [0.5, 0.0, 0.5], PeriodicSite: H (2.26, 2.26, 0.0) [0.5, 0.5, -0.0], PeriodicSite: H (0.0, 2.26, 2.26) [-0.0, 0.5, 0.5]]",92.40505411028691,"[Element Rb, Element Ca, Element H, Element H, Element H]",False,False,-0.48111530249999956,0.017971986000000495,3.2736
1531,mp,mp-1225221.cif,Eu1 Si3 Ni1,EuSi3Ni,I-4m2,5.719200948777897,5.719200948777897,5.719200948777897,137.7193048391714,137.7193048391714,61.333169235245954,"(True, True, True)","[PeriodicSite: Eu (0.0, 0.0, 0.0) [0.0, 0.0, 0.0], PeriodicSite: Si (0.0, 0.0, 6.143) [0.6244, 0.6244, 0.0], PeriodicSite: Si (0.0, 0.0, 3.696) [0.3756, 0.3756, 0.0], PeriodicSite: Si (0.0, 2.063, 2.46) [0.75, 0.25, 0.5], PeriodicSite: Ni (2.063, 0.0, 2.46) [0.25, 0.75, 0.5]]",83.7184122152712,"[Element Eu, Element Si, Element Si, Element Si, Element Ni]",False,True,-0.4026926500000002,0.12889032799999978,0.0
1532,mp,mp-977412.cif,Eu1 Ni1 O3,EuNiO3,Pm-3m,3.792445,3.792445,3.792445,90.0,90.0,90.0,"(True, True, True)","[PeriodicSite: Eu (1.896, 1.896, 1.896) [0.5, 0.5, 0.5], PeriodicSite: Ni (0.0, 0.0, 0.0) [0.0, 0.0, 0.0], PeriodicSite: O (1.896, 0.0, 0.0) [0.5, 0.0, 0.0], PeriodicSite: O (0.0, 1.896, 0.0) [0.0, 0.5, 0.0], PeriodicSite: O (0.0, 0.0, 1.896) [0.0, 0.0, 0.5]]",54.54536765826052,"[Element Eu, Element Ni, Element O, Element O, Element O]",False,True,-2.0103989312499997,0.07138108500000229,0.0
1533,mp,mp-13072.cif,Pr1 Ge3 Rh1,PrGe3Rh,I4mm,5.916428590741785,5.916428590741785,5.916428590741785,136.1819901594707,136.1819901594707,63.699100766116985,"(True, True, True)","[PeriodicSite: Pr (0.0, 0.0, 0.02208) [0.002196, 0.002196, -0.0], PeriodicSite: Ge (0.0, 2.208, 2.406) [0.7394, 0.2394, 0.5], PeriodicSite: Ge (2.208, 0.0, 2.406) [0.2394, 0.7394, 0.5], PeriodicSite: Ge (0.0, 0.0, 5.833) [0.5804, 0.5804, 0.0], PeriodicSite: Rh (0.0, 0.0, 3.439) [0.3421, 0.3421, 0.0]]",97.97123686884038,"[Element Pr, Element Ge, Element Ge, Element Ge, Element Rh]",True,False,-0.7038289360000001,0.0,0.0
1534,mp,mp-998358.cif,Mg1 Ag1 F3,MgAgF3,Pm-3m,3.988217,3.988217,3.988217,90.0,90.0,90.0,"(True, True, True)","[PeriodicSite: Mg (0.0, 0.0, 0.0) [0.0, 0.0, 0.0], PeriodicSite: Ag (1.994, 1.994, 1.994) [0.5, 0.5, 0.5], PeriodicSite: F (1.994, 0.0, 0.0) [0.5, 0.0, 0.0], PeriodicSite: F (0.0, 1.994, 0.0) [0.0, 0.5, 0.0], PeriodicSite: F (0.0, 0.0, 1.994) [0.0, 0.0, 0.5]]",63.436080433127024,"[Element Mg, Element Ag, Element F, Element F, Element F]",False,False,-2.7580857688333333,0.03317893600000499,2.1127000000000002
1535,mp,mp-22263.cif,Yb3 Sn1 C1,Yb3SnC,Pm-3m,5.914847,5.914847,5.914847,90.0,90.0,90.0,"(True, True, True)","[PeriodicSite: Yb (0.0, 2.957, 2.957) [0.0, 0.5, 0.5], PeriodicSite: Yb (2.957, 0.0, 2.957) [0.5, 0.0, 0.5], PeriodicSite: Yb (2.957, 2.957, 0.0) [0.5, 0.5, 0.0], PeriodicSite: Sn (2.957, 2.957, 2.957) [0.5, 0.5, 0.5], PeriodicSite: C (0.0, 0.0, 0.0) [0.0, 0.0, 0.0]]",206.9333771541141,"[Element Yb, Element Yb, Element Yb, Element Sn, Element C]",False,True,1.0915646274999997,1.5194259853333345,0.0
1536,mp,mp-20337.cif,Zr1 Pb1 O3,ZrPbO3,Amm2,4.276790774412281,4.276790774412281,4.176356,90.0,90.0,91.63483789119584,"(True, True, True)","[PeriodicSite: Zr (2.981, -0.04222, 2.088) [0.5069, 0.4931, 0.5], PeriodicSite: Pb (2.981, -2.73, 0.0) [0.945, 0.05498, 0.0], PeriodicSite: O (1.398, 1.242, 2.088) [0.03203, 0.4368, 0.5], PeriodicSite: O (4.564, 1.242, 2.088) [0.5632, 0.968, 0.5], PeriodicSite: O (2.981, -0.3675, 0.0) [0.5599, 0.4401, 0.0]]",76.35838009464848,"[Element Zr, Element Pb, Element O, Element O, Element O]",False,False,-2.8440216552499997,0.032542966812499685,2.6727000000000003
1537,mp,mp-1402304.cif,Y1 W1 O3,YWO3,Pm-3m,4.103411,4.103411,4.103411,90.0,90.0,90.0,"(True, True, True)","[PeriodicSite: Y (0.0, 0.0, 0.0) [0.0, 0.0, 0.0], PeriodicSite: W (2.052, 2.052, 2.052) [0.5, 0.5, 0.5], PeriodicSite: O (2.052, 2.052, 0.0) [0.5, 0.5, 0.0], PeriodicSite: O (2.052, 0.0, 2.052) [0.5, 0.0, 0.5], PeriodicSite: O (0.0, 2.052, 2.052) [0.0, 0.5, 0.5]]",69.09315987921504,"[Element Y, Element W, Element O, Element O, Element O]",False,True,-2.155923758583333,0.8033917662500087,0.0
1538,mp,mp-16334.cif,Fe3 Pd1 N1,Fe3PdN,Pm-3m,3.85021387,3.85019387,3.85026736,90.0,90.0,90.0,"(True, True, True)","[PeriodicSite: Fe (1.925, 0.0, 1.925) [0.5, -0.0, 0.5], PeriodicSite: Fe (0.0, 1.925, 1.925) [0.0, 0.5, 0.5], PeriodicSite: Fe (1.925, 1.925, 0.0) [0.5, 0.5, -0.0], PeriodicSite: Pd (0.0, 0.0, 0.0) [0.0, -0.0, 0.0], PeriodicSite: N (1.925, 1.925, 1.925) [0.5, 0.5, 0.5]]",57.07663224909501,"[Element Fe, Element Fe, Element Fe, Element Pd, Element N]",True,True,-0.1977139309999984,0.0,0.0
1539,mp,mp-998308.cif,Cs1 Sc1 Br3,CsScBr3,Pm,5.519352,5.522903,5.523968089072202,89.98971076359133,90.0,90.0,"(True, True, True)","[PeriodicSite: Cs (2.76, 5.521, 5.492) [0.5, 0.9994, 0.9943], PeriodicSite: Sc (0.0, 2.781, 2.681) [0.0, 0.5035, 0.4854], PeriodicSite: Br (2.76, 2.786, 2.689) [0.5, 0.5043, 0.4868], PeriodicSite: Br (0.0, 2.759, 5.445) [0.0, 0.4993, 0.9857], PeriodicSite: Br (0.0, 0.01965, 2.695) [0.0, 0.00347, 0.4879]]",168.38626429989753,"[Element Cs, Element Sc, Element Br, Element Br, Element Br]",False,True,-1.979606956586207,0.09761277833333182,0.0
1540,mp,mp-4559.cif,Ba1 C1 O3,BaCO3,R3m,4.316593125685401,4.316593091521252,4.316593730385369,77.02716604123592,77.02716971476346,77.02716943018886,"(True, True, True)","[PeriodicSite: Ba (0.1279, 0.09752, 0.1866) [0.02738, 0.02738, 0.02738], PeriodicSite: C (2.184, 1.665, 3.186) [0.4674, 0.4674, 0.4674], PeriodicSite: O (1.104, 2.247, 3.587) [0.1872, 0.603, 0.603], PeriodicSite: O (2.459, 0.469, 3.587) [0.603, 0.1872, 0.603], PeriodicSite: O (2.948, 2.247, 2.323) [0.603, 0.603, 0.1872]]",75.0831109614839,"[Element Ba, Element C, Element O, Element O, Element O]",False,False,-2.66216133275,0.02184473500000017,4.3635
1541,mp,mp-972116.cif,V1 Ir1 O3,VIrO3,Pm-3m,3.927342,3.927342,3.927342,90.0,90.0,90.0,"(True, True, True)","[PeriodicSite: V (0.0, 0.0, 0.0) [0.0, 0.0, 0.0], PeriodicSite: Ir (1.964, 1.964, 1.964) [0.5, 0.5, 0.5], PeriodicSite: O (1.964, 1.964, 0.0) [0.5, 0.5, 0.0], PeriodicSite: O (1.964, 0.0, 1.964) [0.5, 0.0, 0.5], PeriodicSite: O (0.0, 1.964, 1.964) [0.0, 0.5, 0.5]]",60.57538264454688,"[Element V, Element Ir, Element O, Element O, Element O]",False,True,-0.6475694212500016,1.2196272264999992,0.0
1542,mp,mp-20097.cif,Pt3 Pb1 C1,Pt3PbC,Pm-3m,4.348043,4.348043,4.348043,90.0,90.0,90.0,"(True, True, True)","[PeriodicSite: Pt (0.0, 2.174, 2.174) [0.0, 0.5, 0.5], PeriodicSite: Pt (2.174, 2.174, 0.0) [0.5, 0.5, 0.0], PeriodicSite: Pt (2.174, 0.0, 2.174) [0.5, 0.0, 0.5], PeriodicSite: Pb (0.0, 0.0, 0.0) [0.0, 0.0, 0.0], PeriodicSite: C (2.174, 2.174, 2.174) [0.5, 0.5, 0.5]]",82.2018309745344,"[Element Pt, Element Pt, Element Pt, Element Pb, Element C]",False,False,0.39054490850000007,0.48260284749999993,0.0
1543,mp,mp-20750.cif,Tb3 Sn1 C1,Tb3SnC,Pm-3m,5.630732,5.630732,5.630732,90.0,90.0,90.0,"(True, True, True)","[PeriodicSite: Tb (0.0, 2.815, 2.815) [0.0, 0.5, 0.5], PeriodicSite: Tb (2.815, 0.0, 2.815) [0.5, 0.0, 0.5], PeriodicSite: Tb (2.815, 2.815, 0.0) [0.5, 0.5, 0.0], PeriodicSite: Sn (2.815, 2.815, 2.815) [0.5, 0.5, 0.5], PeriodicSite: C (0.0, 0.0, 0.0) [0.0, 0.0, 0.0]]",178.5231624428596,"[Element Tb, Element Tb, Element Tb, Element Sn, Element C]",False,False,1.4489174335000001,1.9633422661111117,0.0
1544,mp,mp-9061.cif,K1 Pd1 F3,KPdF3,Pm-3m,4.309256,4.309256,4.309256,90.0,90.0,90.0,"(True, True, True)","[PeriodicSite: K (2.155, 2.155, 2.155) [0.5, 0.5, 0.5], PeriodicSite: Pd (0.0, 0.0, 0.0) [0.0, 0.0, 0.0], PeriodicSite: F (0.0, 2.155, 0.0) [0.0, 0.5, 0.0], PeriodicSite: F (0.0, 0.0, 2.155) [0.0, 0.0, 0.5], PeriodicSite: F (2.155, 0.0, 0.0) [0.5, 0.0, 0.0]]",80.02153630160868,"[Element K, Element Pd, Element F, Element F, Element F]",False,False,-2.1147378481,0.034555294000011116,0.0
1545,mp,mp-866095.cif,Ce1 Ni1 O3,CeNiO3,Pm-3m,3.785418,3.785418,3.785418,90.0,90.0,90.0,"(True, True, True)","[PeriodicSite: Ce (0.0, 0.0, 0.0) [0.0, 0.0, 0.0], PeriodicSite: Ni (1.893, 1.893, 1.893) [0.5, 0.5, 0.5], PeriodicSite: O (1.893, 1.893, 0.0) [0.5, 0.5, 0.0], PeriodicSite: O (1.893, 0.0, 1.893) [0.5, 0.0, 0.5], PeriodicSite: O (0.0, 1.893, 1.893) [0.0, 0.5, 0.5]]",54.242728695214055,"[Element Ce, Element Ni, Element O, Element O, Element O]",False,True,-2.3981846022500015,0.44689075500000186,0.0
1546,mp,mp-976923.cif,Na1 Re1 O3,NaReO3,Pm-3m,3.887614,3.887614,3.887614,90.0,90.0,90.0,"(True, True, True)","[PeriodicSite: Na (0.0, 0.0, 0.0) [0.0, 0.0, 0.0], PeriodicSite: Re (1.944, 1.944, 1.944) [0.5, 0.5, 0.5], PeriodicSite: O (1.944, 1.944, 0.0) [0.5, 0.5, 0.0], PeriodicSite: O (1.944, 0.0, 1.944) [0.5, 0.0, 0.5], PeriodicSite: O (0.0, 1.944, 1.944) [0.0, 0.5, 0.5]]",58.755619851879835,"[Element Na, Element Re, Element O, Element O, Element O]",False,False,-2.0778731955603447,0.041795214699993366,0.0
1547,mp,mp-989497.cif,La1 W1 N3,LaWN3,P4mm,3.92323858,3.92323858,4.35371765,90.0,90.0,90.0,"(True, True, True)","[PeriodicSite: La (1.962, 1.962, 1.427) [0.5, 0.5, 0.3279], PeriodicSite: W (0.0, 0.0, 3.461) [0.0, 0.0, 0.7949], PeriodicSite: N (0.0, 1.962, 3.057) [0.0, 0.5, 0.7022], PeriodicSite: N (1.962, 0.0, 3.057) [0.5, -0.0, 0.7022], PeriodicSite: N (0.0, 0.0, 0.9106) [-0.0, -0.0, 0.2092]]",67.0115554856844,"[Element La, Element W, Element N, Element N, Element N]",False,False,-1.203873347999999,0.018502149999999773,0.0
1548,mp,mp-974769.cif,Eu1 Ni1 Ge3,EuNiGe3,I4mm,5.783994394665629,5.783994394665629,5.783994394665629,136.02053060421204,136.02053060421204,63.94859618809994,"(True, True, True)","[PeriodicSite: Eu (0.0, 0.0, 0.01602) [0.001633, 0.001633, -0.0], PeriodicSite: Ni (0.0, 0.0, 3.395) [0.3459, 0.3459, -0.0], PeriodicSite: Ge (2.166, 0.0, 2.427) [0.2474, 0.7474, 0.5], PeriodicSite: Ge (0.0, 2.166, 2.427) [0.7474, 0.2474, 0.5], PeriodicSite: Ge (0.0, 0.0, 5.723) [0.5832, 0.5832, 0.0]]",92.05583106234701,"[Element Eu, Element Ni, Element Ge, Element Ge, Element Ge]",True,True,-0.5282790989999995,0.0,0.0
1549,mp,mp-19062.cif,Nd1 Cr1 O3,NdCrO3,Pm-3m,3.90191,3.90191,3.90191,90.0,90.0,90.0,"(True, True, True)","[PeriodicSite: Nd (0.0, 0.0, 0.0) [0.0, 0.0, 0.0], PeriodicSite: Cr (1.951, 1.951, 1.951) [0.5, 0.5, 0.5], PeriodicSite: O (0.0, 1.951, 1.951) [0.0, 0.5, 0.5], PeriodicSite: O (1.951, 0.0, 1.951) [0.5, 0.0, 0.5], PeriodicSite: O (1.951, 1.951, 0.0) [0.5, 0.5, 0.0]]",59.40619598973787,"[Element Nd, Element Cr, Element O, Element O, Element O]",False,True,-2.9994919647500007,0.1431141595000014,1.904
1550,mp,mp-30834.cif,Sr1 Sn3 Pd1,SrSn3Pd,I4mm,4.8053844718407035,4.805384471968167,6.644368712912075,111.18515958409601,111.18515996488625,89.98720191343052,"(True, True, True)","[PeriodicSite: Sr (3.801, 4.439, 3.107) [0.997, 0.997, 0.9941], PeriodicSite: Sn (1.58, 1.845, 4.022) [0.4116, 0.4116, 0.8228], PeriodicSite: Sn (3.181, 1.102, 1.526) [0.7459, 0.2457, 0.4916], PeriodicSite: Sn (0.5994, 3.313, 1.526) [0.2457, 0.7459, 0.4916], PeriodicSite: Pd (2.433, 2.842, -0.3753) [0.6408, 0.6408, 0.282]]",131.883941392334,"[Element Sr, Element Sn, Element Sn, Element Sn, Element Pd]",True,False,-0.5797029263333329,0.0,0.0
1551,mp,mp-984051.cif,Cs1 Ge1 O3,CsGeO3,Pm-3m,4.064553,4.064553,4.064553,90.0,90.0,90.0,"(True, True, True)","[PeriodicSite: Cs (0.0, 0.0, 0.0) [0.0, 0.0, 0.0], PeriodicSite: Ge (2.032, 2.032, 2.032) [0.5, 0.5, 0.5], PeriodicSite: O (2.032, 2.032, 0.0) [0.5, 0.5, 0.0], PeriodicSite: O (2.032, 0.0, 2.032) [0.5, 0.0, 0.5], PeriodicSite: O (0.0, 2.032, 2.032) [0.0, 0.5, 0.5]]",67.14881807585644,"[Element Cs, Element Ge, Element O, Element O, Element O]",False,True,-1.2853853618362074,0.5740035452916672,0.0