,provider,id,Full_Formula,formula,space_group,a_lattice_param,b_lattice_param,c_lattice_param,aplha_degree,beta_degree,gamma_degree,pbc,sits,volume,species_at_sites,is_stable,is_magnetic,formation_energy,energy_above_hull,band_gap
1552,mp,mp-654812.cif,Cd1 C1 O3,CdCO3,R-3m,4.5624645810448765,4.5624645810448765,4.562464291584976,58.548317421016186,58.548317421016186,58.54830643520228,"(True, True, True)","[PeriodicSite: Cd (0.0, 0.0, 0.0) [0.0, 0.0, 0.0], PeriodicSite: C (5.344, 0.0, 1.828) [0.5, 0.5, 0.5], PeriodicSite: O (1.99, -1.115, 0.0) [0.5, 0.0, 0.0], PeriodicSite: O (1.365, 0.0, 1.828) [0.0, 0.0, 0.5], PeriodicSite: O (1.99, 1.115, 0.0) [0.0, 0.5, 0.0]]",64.92625259175497,"[Element Cd, Element C, Element O, Element O, Element O]",False,True,1.1251319012499998,2.8887463209999997,0.0
1553,mp,mp-614013.cif,Cs1 Sn1 I3,CsSnI3,Pm-3m,6.286228,6.286228,6.286228,90.0,90.0,90.0,"(True, True, True)","[PeriodicSite: Cs (3.143, 3.143, 3.143) [0.5, 0.5, 0.5], PeriodicSite: Sn (0.0, 0.0, 0.0) [0.0, 0.0, 0.0], PeriodicSite: I (3.143, 0.0, 0.0) [0.5, 0.0, 0.0], PeriodicSite: I (0.0, 0.0, 3.143) [0.0, 0.0, 0.5], PeriodicSite: I (0.0, 3.143, 0.0) [0.0, 0.5, 0.0]]",248.41075007279017,"[Element Cs, Element Sn, Element I, Element I, Element I]",True,False,-1.214439118586207,0.0,0.44999999999999973
1554,mp,mp-2930.cif,Mn3 Zn1 C1,Mn3ZnC,Pm-3m,3.875537,3.875537,3.875537,90.0,90.0,90.0,"(True, True, True)","[PeriodicSite: Mn (0.0, 1.938, 1.938) [0.0, 0.5, 0.5], PeriodicSite: Mn (1.938, 1.938, 0.0) [0.5, 0.5, 0.0], PeriodicSite: Mn (1.938, 0.0, 1.938) [0.5, 0.0, 0.5], PeriodicSite: Zn (0.0, 0.0, 0.0) [0.0, 0.0, 0.0], PeriodicSite: C (1.938, 1.938, 1.938) [0.5, 0.5, 0.5]]",58.20974039931948,"[Element Mn, Element Mn, Element Mn, Element Zn, Element C]",False,True,-0.031497474258621594,0.04248646001839429,0.0
1555,mp,mp-973471.cif,K1 Re1 O3,KReO3,Pm-3m,3.939058,3.939058,3.939058,90.0,90.0,90.0,"(True, True, True)","[PeriodicSite: K (0.0, 0.0, 0.0) [0.0, 0.0, 0.0], PeriodicSite: Re (1.97, 1.97, 1.97) [0.5, 0.5, 0.5], PeriodicSite: O (1.97, 1.97, 0.0) [0.5, 0.5, 0.0], PeriodicSite: O (1.97, 0.0, 1.97) [0.5, 0.0, 0.5], PeriodicSite: O (0.0, 1.97, 1.97) [0.0, 0.5, 0.5]]",61.11912479420659,"[Element K, Element Re, Element O, Element O, Element O]",False,False,-2.08751755685,0.037232448000001916,0.0
1556,mp,mp-973738.cif,Ge1 B1 O3,GeBO3,Pm-3m,3.407341,3.407341,3.407341,90.0,90.0,90.0,"(True, True, True)","[PeriodicSite: Ge (0.0, 0.0, 0.0) [0.0, 0.0, 0.0], PeriodicSite: B (1.704, 1.704, 1.704) [0.5, 0.5, 0.5], PeriodicSite: O (1.704, 1.704, 0.0) [0.5, 0.5, 0.0], PeriodicSite: O (1.704, 0.0, 1.704) [0.5, 0.0, 0.5], PeriodicSite: O (0.0, 1.704, 1.704) [0.0, 0.5, 0.5]]",39.55913595647476,"[Element Ge, Element B, Element O, Element O, Element O]",False,False,-1.0114343020833332,1.323040019416669,0.0
1557,mp,mp-976284.cif,Eu1 Sb1 O3,EuSbO3,Pm-3m,4.218665,4.218665,4.218665,90.0,90.0,90.0,"(True, True, True)","[PeriodicSite: Eu (0.0, 0.0, 0.0) [0.0, 0.0, 0.0], PeriodicSite: Sb (2.109, 2.109, 2.109) [0.5, 0.5, 0.5], PeriodicSite: O (2.109, 2.109, 0.0) [0.5, 0.5, 0.0], PeriodicSite: O (2.109, 0.0, 2.109) [0.5, 0.0, 0.5], PeriodicSite: O (0.0, 2.109, 2.109) [0.0, 0.5, 0.5]]",75.0801479185892,"[Element Eu, Element Sb, Element O, Element O, Element O]",False,True,-2.31236605325,0.2146479884761927,0.0
1558,mp,mp-20992.cif,Ce3 In1 C1,Ce3InC,Pm-3m,5.04591409,5.0459467,5.04587929,90.0,90.0,90.0,"(True, True, True)","[PeriodicSite: Ce (2.523, 2.523, 0.0) [0.5, 0.5, 0.0], PeriodicSite: Ce (0.0, 2.523, 2.523) [-0.0, 0.5, 0.5], PeriodicSite: Ce (2.523, 0.0, 2.523) [0.5, 0.0, 0.5], PeriodicSite: In (0.0, 0.0, 0.0) [-0.0, 0.0, 0.0], PeriodicSite: C (2.523, 2.523, 2.523) [0.5, 0.5, 0.5]]",128.47521933070757,"[Element Ce, Element Ce, Element Ce, Element In, Element C]",True,True,-0.3231383485000002,0.0,0.0
1559,mp,mp-1227349.cif,Ba1 Zn1 In3,BaZnIn3,I4mm,6.928847465953186,6.928847465953186,6.928847465953186,139.74470723684436,139.74470723684436,58.24113005414635,"(True, True, True)","[PeriodicSite: Ba (0.0, 0.0, 0.04711) [0.003892, 0.003892, 0.0], PeriodicSite: Zn (0.0, 0.0, 7.474) [0.6173, 0.6173, -0.0], PeriodicSite: In (0.0, 2.384, 2.935) [0.7424, 0.2424, 0.5], PeriodicSite: In (2.384, 0.0, 2.935) [0.2424, 0.7424, 0.5], PeriodicSite: In (0.0, 0.0, 4.768) [0.3939, 0.3939, 0.0]]",137.64360885076934,"[Element Ba, Element Zn, Element In, Element In, Element In]",True,False,-0.3493110940000001,0.0,0.0
1560,mp,mp-1946459.cif,Cs1 Ag1 Br3,CsAgBr3,Pm,5.41674293,5.420254856645592,5.421173362525217,90.01879224361949,90.0,90.0,"(True, True, True)","[PeriodicSite: Cs (0.0, 0.009945, 0.06045) [-0.0, 0.001831, 0.01115], PeriodicSite: Ag (2.708, 2.72, 2.776) [0.5, 0.5016, 0.5124], PeriodicSite: Br (0.0, 2.721, 2.775) [-0.0, 0.5019, 0.5122], PeriodicSite: Br (2.708, 2.725, 0.0653) [0.5, 0.5028, 0.01236], PeriodicSite: Br (2.708, 0.01086, 2.775) [0.5, 0.001847, 0.5119]]",159.16633079233864,"[Element Cs, Element Ag, Element Br, Element Br, Element Br]",False,False,-1.2895099069195404,0.0024982200000001065,0.0
1561,mp,mp-555036.cif,K1 Cr1 F3,KCrF3,Pm-3m,4.219636,4.219636,4.219636,90.0,90.0,90.0,"(True, True, True)","[PeriodicSite: K (2.11, 2.11, 2.11) [0.5, 0.5, 0.5], PeriodicSite: Cr (0.0, 0.0, 0.0) [0.0, 0.0, 0.0], PeriodicSite: F (2.11, 0.0, 0.0) [0.5, 0.0, 0.0], PeriodicSite: F (0.0, 0.0, 2.11) [0.0, 0.0, 0.5], PeriodicSite: F (0.0, 2.11, 0.0) [0.0, 0.5, 0.0]]",75.13200290455114,"[Element K, Element Cr, Element F, Element F, Element F]",False,True,-2.8472730021000006,0.08651776799999933,0.0
1562,mp,mp-554601.cif,Rb1 Cu1 F3,RbCuF3,Pm-3m,4.06660228,4.07169097,4.07169097,90.0,90.0,90.0,"(True, True, True)","[PeriodicSite: Rb (2.033, 2.036, 2.036) [0.5, 0.5, 0.5], PeriodicSite: Cu (0.0, 0.0, 0.0) [0.0, 0.0, -0.0], PeriodicSite: F (2.033, 0.0, 0.0) [0.5, -0.0, 0.0], PeriodicSite: F (0.0, 0.0, 2.036) [-0.0, 0.0, 0.5], PeriodicSite: F (0.0, 2.036, 0.0) [-0.0, 0.5, -0.0]]",67.41884646593466,"[Element Rb, Element Cu, Element F, Element F, Element F]",False,True,-2.3291064429999997,0.009530469999999625,0.0
1563,mp,mp-23080.cif,Al1 Bi1 O3,AlBiO3,Pm-3m,3.787194,3.787194,3.787194,90.0,90.0,90.0,"(True, True, True)","[PeriodicSite: Al (1.894, 1.894, 1.894) [0.5, 0.5, 0.5], PeriodicSite: Bi (0.0, 0.0, 0.0) [0.0, 0.0, 0.0], PeriodicSite: O (1.894, 0.0, 1.894) [0.5, 0.0, 0.5], PeriodicSite: O (1.894, 1.894, 0.0) [0.5, 0.5, 0.0], PeriodicSite: O (0.0, 1.894, 1.894) [0.0, 0.5, 0.5]]",54.31911150734789,"[Element Al, Element Bi, Element O, Element O, Element O]",False,False,-2.442909027249999,0.12160923425000192,1.5859999999999994
1564,mp,mp-989601.cif,La1 W1 N3,LaWN3,R3m,4.04746576464397,4.04746576464397,4.047466475178393,89.57171754154623,89.57171754154623,89.57172063655757,"(True, True, True)","[PeriodicSite: La (0.2629, 0.0, 0.1838) [0.04542, 0.04542, 0.04542], PeriodicSite: W (3.188, 0.0, 2.229) [0.5508, 0.5508, 0.5508], PeriodicSite: N (1.987, -1.451, 2.412) [0.5959, 0.08692, 0.5959], PeriodicSite: N (1.987, 1.451, 2.412) [0.08692, 0.5959, 0.5959], PeriodicSite: N (3.428, 0.0, 0.3518) [0.5959, 0.5959, 0.08692]]",66.29998165866549,"[Element La, Element W, Element N, Element N, Element N]",False,False,-1.199046349999999,0.02332914800000019,0.7063999999999995
1565,mp,mp-22345.cif,Ti1 Cd1 O3,TiCdO3,Pm-3m,4.09528,4.09528,4.09528,90.0,90.0,90.0,"(True, True, True)","[PeriodicSite: Ti (2.048, 2.048, 2.048) [0.5, 0.5, 0.5], PeriodicSite: Cd (0.0, 0.0, 0.0) [0.0, 0.0, 0.0], PeriodicSite: O (2.048, 0.0, 0.0) [0.5, 0.0, 0.0], PeriodicSite: O (0.0, 2.048, 0.0) [0.0, 0.5, 0.0], PeriodicSite: O (0.0, 0.0, 2.048) [0.0, 0.0, 0.5]]",68.68324431916595,"[Element Ti, Element Cd, Element O, Element O, Element O]",False,True,-0.6713622159166668,2.008286217,0.0
1566,mp,mp-1225162.cif,Eu1 Si3 Ni1,EuSi3Ni,I4mm,5.607886524603594,5.607886524603594,5.607886524603594,136.7929673542864,136.7929673542864,62.75674869195381,"(True, True, True)","[PeriodicSite: Eu (0.0, 0.0, 9.438) [0.9857, 0.9857, -0.0], PeriodicSite: Si (0.0, 2.065, 2.307) [0.7409, 0.2409, 0.5], PeriodicSite: Si (2.065, 0.0, 2.307) [0.2409, 0.7409, 0.5], PeriodicSite: Si (0.0, 0.0, 3.797) [0.3966, 0.3966, 0.0], PeriodicSite: Ni (0.0, 0.0, 6.09) [0.636, 0.636, -0.0]]",81.64154657979655,"[Element Eu, Element Si, Element Si, Element Si, Element Ni]",True,True,-0.5315829780000001,0.0,0.0
1567,mp,mp-998323.cif,Cs1 In1 Br3,CsInBr3,P4mm,5.774009,5.774009,5.774409,90.0,90.0,90.0,"(True, True, True)","[PeriodicSite: Cs (2.887, 2.887, 0.03309) [0.5, 0.5, 0.00573], PeriodicSite: In (0.0, 0.0, 2.972) [0.0, 0.0, 0.5146], PeriodicSite: Br (0.0, 2.887, 2.966) [0.0, 0.5, 0.5137], PeriodicSite: Br (0.0, 0.0, 0.08102) [0.0, 0.0, 0.01403], PeriodicSite: Br (2.887, 0.0, 2.966) [0.5, 0.0, 0.5137]]",192.51406065242793,"[Element Cs, Element In, Element Br, Element Br, Element Br]",False,False,-1.5816418155862066,0.018994598000000362,0.0
1568,mp,mp-8577.cif,Sc3 Ga1 C1,Sc3GaC,Pm-3m,4.4743237,4.4743237,4.4743237,90.0,90.0,90.0,"(True, True, True)","[PeriodicSite: Sc (2.237, 0.0, 2.237) [0.5, -0.0, 0.5], PeriodicSite: Sc (0.0, 2.237, 2.237) [-0.0, 0.5, 0.5], PeriodicSite: Sc (2.237, 2.237, 0.0) [0.5, 0.5, -0.0], PeriodicSite: Ga (0.0, 0.0, 0.0) [0.0, 0.0, 0.0], PeriodicSite: C (2.237, 2.237, 2.237) [0.5, 0.5, 0.5]]",89.57404802447736,"[Element Sc, Element Sc, Element Sc, Element Ga, Element C]",True,False,-0.6719668379999995,0.0,0.0
1569,mp,mp-20430.cif,Er3 Pb1 C1,Er3PbC,Pm-3m,5.625335,5.625335,5.625335,90.0,90.0,90.0,"(True, True, True)","[PeriodicSite: Er (0.0, 2.813, 2.813) [0.0, 0.5, 0.5], PeriodicSite: Er (2.813, 2.813, 0.0) [0.5, 0.5, 0.0], PeriodicSite: Er (2.813, 0.0, 2.813) [0.5, 0.0, 0.5], PeriodicSite: Pb (2.813, 2.813, 2.813) [0.5, 0.5, 0.5], PeriodicSite: C (0.0, 0.0, 0.0) [0.0, 0.0, 0.0]]",178.01031634695946,"[Element Er, Element Er, Element Er, Element Pb, Element C]",False,False,1.6550120264999997,2.082803885666666,0.0
1570,mp,mp-22593.cif,Ce1 V1 O3,CeVO3,Pm-3m,3.920275,3.920275,3.920275,90.0,90.0,90.0,"(True, True, True)","[PeriodicSite: Ce (0.0, 0.0, 0.0) [0.0, 0.0, 0.0], PeriodicSite: V (1.96, 1.96, 1.96) [0.5, 0.5, 0.5], PeriodicSite: O (0.0, 1.96, 1.96) [0.0, 0.5, 0.5], PeriodicSite: O (1.96, 0.0, 1.96) [0.5, 0.0, 0.5], PeriodicSite: O (1.96, 1.96, 0.0) [0.5, 0.5, 0.0]]",60.2489661693708,"[Element Ce, Element V, Element O, Element O, Element O]",False,True,-2.9655094742500006,0.26182354149999654,0.0
1571,mp,mp-3428.cif,Sm1 B1 Pd3,SmBPd3,Pm-3m,4.359961,4.359961,4.359961,90.0,90.0,90.0,"(True, True, True)","[PeriodicSite: Sm (0.0, 0.0, 0.0) [0.0, 0.0, 0.0], PeriodicSite: B (2.18, 2.18, 2.18) [0.5, 0.5, 0.5], PeriodicSite: Pd (0.0, 2.18, 2.18) [0.0, 0.5, 0.5], PeriodicSite: Pd (2.18, 2.18, 0.0) [0.5, 0.5, 0.0], PeriodicSite: Pd (2.18, 0.0, 2.18) [0.5, 0.0, 0.5]]",82.87963189669462,"[Element Sm, Element B, Element Pd, Element Pd, Element Pd]",False,False,-0.5852505228333336,0.10793925681818273,0.0
1572,mp,mp-1223842.cif,In1 Bi1 Se3,InBiSe3,R3m,10.256907551873761,10.256907551873761,10.256907053880228,23.17547089484211,23.17547089484211,23.175472224424308,"(True, True, True)","[PeriodicSite: In (11.84, 0.0, 1.411) [0.3983, 0.3983, 0.3983], PeriodicSite: Bi (17.96, 0.0, 2.141) [0.6043, 0.6043, 0.6043], PeriodicSite: Se (23.04, 0.0, 2.747) [0.7752, 0.7752, 0.7752], PeriodicSite: Se (6.475, 0.0, 0.7719) [0.2178, 0.2178, 0.2178], PeriodicSite: Se (0.1277, 0.0, 0.01523) [0.004297, 0.004297, 0.004297]]",146.7082456838383,"[Element In, Element Bi, Element Se, Element Se, Element Se]",False,False,-0.7201610234062507,0.025377894833333414,0.8233999999999999
1573,mp,mp-644203.cif,Cs1 Ca1 H3,CsCaH3,Pm-3m,4.621186,4.621186,4.621186,90.0,90.0,90.0,"(True, True, True)","[PeriodicSite: Cs (0.0, 0.0, 0.0) [0.0, 0.0, 0.0], PeriodicSite: Ca (2.311, 2.311, 2.311) [0.5, 0.5, 0.5], PeriodicSite: H (2.311, 0.0, 2.311) [0.5, 0.0, 0.5], PeriodicSite: H (0.0, 2.311, 2.311) [0.0, 0.5, 0.5], PeriodicSite: H (2.311, 2.311, 0.0) [0.5, 0.5, 0.0]]",98.68709087228876,"[Element Cs, Element Ca, Element H, Element H, Element H]",False,False,-0.4839256125862065,0.012165698000000003,3.1408
1574,mp,mp-1227881.cif,Ba1 Mg1 In3,BaMgIn3,I-4m2,7.1826092428717505,7.1826092428717505,7.1826092428717505,140.58295029558218,140.58295029558218,56.969232297526226,"(True, True, True)","[PeriodicSite: Ba (0.0, 0.0, 0.0) [0.0, -0.0, 0.0], PeriodicSite: Mg (-2.22e-16, 2.422, 3.157) [0.75, 0.25, 0.5], PeriodicSite: In (0.0, 0.0, 4.874) [0.386, 0.386, 0.0], PeriodicSite: In (0.0, 0.0, 7.752) [0.614, 0.614, -0.0], PeriodicSite: In (2.422, -2.22e-16, 3.157) [0.25, 0.75, 0.5]]",148.1612556831598,"[Element Ba, Element Mg, Element In, Element In, Element In]",True,False,-0.35040747000000005,0.0,0.0
1575,mp,mp-5827.cif,Ca1 Ti1 O3,CaTiO3,Pm-3m,3.889471,3.889471,3.889471,90.0,90.0,90.0,"(True, True, True)","[PeriodicSite: Ca (1.945, 1.945, 1.945) [0.5, 0.5, 0.5], PeriodicSite: Ti (0.0, 0.0, 0.0) [0.0, 0.0, 0.0], PeriodicSite: O (0.0, 1.945, 0.0) [0.0, 0.5, 0.0], PeriodicSite: O (0.0, 0.0, 1.945) [0.0, 0.0, 0.5], PeriodicSite: O (1.945, 0.0, 0.0) [0.5, 0.0, 0.0]]",58.83985762289643,"[Element Ca, Element Ti, Element O, Element O, Element O]",False,False,-3.492382935916667,0.0644675975000002,1.8284999999999996
1576,mp,mp-1416557.cif,Al1 Ni1 O3,AlNiO3,Pm-3m,3.659524,3.659524,3.659524,90.0,90.0,90.0,"(True, True, True)","[PeriodicSite: Al (0.0, 0.0, 0.0) [0.0, 0.0, 0.0], PeriodicSite: Ni (1.83, 1.83, 1.83) [0.5, 0.5, 0.5], PeriodicSite: O (1.83, 1.83, 0.0) [0.5, 0.5, 0.0], PeriodicSite: O (1.83, 0.0, 1.83) [0.5, 0.0, 0.5], PeriodicSite: O (0.0, 1.83, 1.83) [0.0, 0.5, 0.5]]",49.00876957089664,"[Element Al, Element Ni, Element O, Element O, Element O]",False,True,-0.8952494872500004,1.3615698659772733,0.0
1577,mp,mp-613384.cif,Cs1 I1 O3,CsIO3,Pm-3m,4.590332,4.590332,4.590332,90.0,90.0,90.0,"(True, True, True)","[PeriodicSite: Cs (0.0, 0.0, 0.0) [0.0, 0.0, 0.0], PeriodicSite: I (2.295, 2.295, 2.295) [0.5, 0.5, 0.5], PeriodicSite: O (0.0, 0.0, 2.295) [0.0, 0.0, 0.5], PeriodicSite: O (0.0, 2.295, 0.0) [0.0, 0.5, 0.0], PeriodicSite: O (2.295, 0.0, 0.0) [0.5, 0.0, 0.0]]",96.72356434542107,"[Element Cs, Element I, Element O, Element O, Element O]",False,False,0.5802867591637927,1.9664208050000003,0.0
1578,mp,mp-866101.cif,Ac1 Cr1 O3,AcCrO3,Pm-3m,3.9442869,3.94430226,3.9442715,90.0,90.0,90.0,"(True, True, True)","[PeriodicSite: Ac (0.0, 0.0, 0.0) [-0.0, -0.0, -0.0], PeriodicSite: Cr (1.972, 1.972, 1.972) [0.5, 0.5, 0.5], PeriodicSite: O (1.972, 1.972, 0.0) [0.5, 0.5, 0.0], PeriodicSite: O (1.972, 0.0, 1.972) [0.5, -0.0, 0.5], PeriodicSite: O (0.0, 1.972, 1.972) [-0.0, 0.5, 0.5]]",61.36284504026082,"[Element Ac, Element Cr, Element O, Element O, Element O]",True,True,-3.13973550575,0.0,2.0031000000000008
1579,mp,mp-28171.cif,K3 I1 O1,K3IO,Pm-3m,5.29423015,5.29423015,5.29423015,90.0,90.0,90.0,"(True, True, True)","[PeriodicSite: K (2.647, 0.0, 0.0) [0.5, -0.0, -0.0], PeriodicSite: K (0.0, 0.0, 2.647) [-0.0, -0.0, 0.5], PeriodicSite: K (0.0, 2.647, 0.0) [-0.0, 0.5, -0.0], PeriodicSite: I (2.647, 2.647, 2.647) [0.5, 0.5, 0.5], PeriodicSite: O (0.0, 0.0, 0.0) [-0.0, -0.0, -0.0]]",148.3913038780024,"[Element K, Element K, Element K, Element I, Element O]",True,False,-1.4688124775499993,0.0,1.0284000000000002
1580,mp,mp-561598.cif,Ba1 Pb1 O3,BaPbO3,Pm-3m,4.670138,4.670138,4.670138,90.0,90.0,90.0,"(True, True, True)","[PeriodicSite: Ba (0.0, 0.0, 0.0) [0.0, 0.0, 0.0], PeriodicSite: Pb (2.335, 2.335, 2.335) [0.5, 0.5, 0.5], PeriodicSite: O (2.335, 0.0, 0.0) [0.5, 0.0, 0.0], PeriodicSite: O (0.0, 0.0, 2.335) [0.0, 0.0, 0.5], PeriodicSite: O (0.0, 2.335, 0.0) [0.0, 0.5, 0.0]]",101.85659215140905,"[Element Ba, Element Pb, Element O, Element O, Element O]",False,False,-1.01444146925,1.095172060000003,0.0
1581,mp,mp-33365.cif,Ce1 Ga1 O3,CeGaO3,Pm-3m,3.894384,3.894384,3.894384,90.0,90.0,90.0,"(True, True, True)","[PeriodicSite: Ce (1.947, 1.947, 1.947) [0.5, 0.5, 0.5], PeriodicSite: Ga (0.0, 0.0, 0.0) [0.0, 0.0, 0.0], PeriodicSite: O (0.0, 0.0, 1.947) [0.0, 0.0, 0.5], PeriodicSite: O (0.0, 1.947, 0.0) [0.0, 0.5, 0.0], PeriodicSite: O (1.947, 0.0, 0.0) [0.5, 0.0, 0.0]]",59.063110754509616,"[Element Ce, Element Ga, Element O, Element O, Element O]",False,True,-2.8922972717500004,0.22402289890000038,0.0
1582,mp,mp-20459.cif,Ti1 Pb1 O3,TiPbO3,P4mm,3.8795519,3.8795519,4.28588762,90.0,90.0,90.0,"(True, True, True)","[PeriodicSite: Ti (1.94, 1.94, 2.497) [0.5, 0.5, 0.5825], PeriodicSite: Pb (0.0, 0.0, 0.5297) [-0.0, 0.0, 0.1236], PeriodicSite: O (0.0, 1.94, 2.118) [-0.0, 0.5, 0.4942], PeriodicSite: O (1.94, 0.0, 2.118) [0.5, 0.0, 0.4942], PeriodicSite: O (1.94, 1.94, 4.268) [0.5, 0.5, 0.9958]]",64.50656431866487,"[Element Ti, Element Pb, Element O, Element O, Element O]",True,False,-2.7313531619166667,0.0,1.8129999999999997
1583,mp,mp-7482.cif,Rb1 Hg1 F3,RbHgF3,Pm-3m,4.54921913,4.54921913,4.54921913,90.0,90.0,90.0,"(True, True, True)","[PeriodicSite: Rb (0.0, 0.0, 0.0) [0.0, 0.0, 0.0], PeriodicSite: Hg (2.275, 2.275, 2.275) [0.5, 0.5, 0.5], PeriodicSite: F (2.275, 0.0, 2.275) [0.5, 0.0, 0.5], PeriodicSite: F (2.275, 2.275, 0.0) [0.5, 0.5, 0.0], PeriodicSite: F (0.0, 2.275, 2.275) [0.0, 0.5, 0.5]]",94.14788543919498,"[Element Rb, Element Hg, Element F, Element F, Element F]",True,False,-2.23238786,0.0,0.6454
1584,mp,mp-864606.cif,Ac1 Cu1 O3,AcCuO3,Pm-3m,3.91333125,3.91333125,3.91333125,90.0,90.0,90.0,"(True, True, True)","[PeriodicSite: Ac (0.0, 0.0, 0.0) [0.0, 0.0, 0.0], PeriodicSite: Cu (1.957, 1.957, 1.957) [0.5, 0.5, 0.5], PeriodicSite: O (1.957, 1.957, 0.0) [0.5, 0.5, -0.0], PeriodicSite: O (1.957, 0.0, 1.957) [0.5, -0.0, 0.5], PeriodicSite: O (0.0, 1.957, 1.957) [-0.0, 0.5, 0.5]]",59.92938665681022,"[Element Ac, Element Cu, Element O, Element O, Element O]",True,False,-2.42365579975,0.0,0.0
1585,mp,mp-975385.cif,Rb1 B1 O3,RbBO3,Pm-3m,3.69368,3.69368,3.69368,90.0,90.0,90.0,"(True, True, True)","[PeriodicSite: Rb (0.0, 0.0, 0.0) [0.0, 0.0, 0.0], PeriodicSite: B (1.847, 1.847, 1.847) [0.5, 0.5, 0.5], PeriodicSite: O (1.847, 1.847, 0.0) [0.5, 0.5, 0.0], PeriodicSite: O (1.847, 0.0, 1.847) [0.5, 0.0, 0.5], PeriodicSite: O (0.0, 1.847, 1.847) [0.0, 0.5, 0.5]]",50.39388070820404,"[Element Rb, Element B, Element O, Element O, Element O]",False,True,-0.5985917445833338,1.4997210935833332,0.0
1586,mp,mp-21233.cif,Ti3 In1 N1,Ti3InN,Pm-3m,4.18788422,4.18788422,4.18788422,90.0,90.0,90.0,"(True, True, True)","[PeriodicSite: Ti (0.0, 2.094, 2.094) [0.0, 0.5, 0.5], PeriodicSite: Ti (2.094, 2.094, 0.0) [0.5, 0.5, 0.0], PeriodicSite: Ti (2.094, 0.0, 2.094) [0.5, 0.0, 0.5], PeriodicSite: In (0.0, 0.0, 0.0) [0.0, 0.0, 0.0], PeriodicSite: N (2.094, 2.094, 2.094) [0.5, 0.5, 0.5]]",73.44868072467402,"[Element Ti, Element Ti, Element Ti, Element In, Element N]",False,False,-0.9320973869999989,0.006211866000000121,0.0
1587,mp,mp-644246.cif,Eu1 H3 Pd1,EuH3Pd,Pm-3m,3.78882214,3.79214528,3.79250035,90.0,90.0,90.0,"(True, True, True)","[PeriodicSite: Eu (1.894, 1.896, 1.896) [0.5, 0.5, 0.5], PeriodicSite: H (0.0, 0.0, 1.896) [0.0, -0.0, 0.5], PeriodicSite: H (0.0, 1.896, 0.0) [0.0, 0.5, 0.0], PeriodicSite: H (1.894, 0.0, 0.0) [0.5, -0.0, 0.0], PeriodicSite: Pd (0.0, 0.0, 0.0) [0.0, -0.0, 0.0]]",54.489749979605094,"[Element Eu, Element H, Element H, Element H, Element Pd]",True,True,-0.5273384289999996,0.0,0.0
1588,mp,mp-546910.cif,Ca1 Sn1 O3,CaSnO3,Pm-3m,4.349933,4.349933,4.349933,90.0,90.0,90.0,"(True, True, True)","[PeriodicSite: Ca (2.175, 2.175, 2.175) [0.5, 0.5, 0.5], PeriodicSite: Sn (0.0, 0.0, 0.0) [0.0, 0.0, 0.0], PeriodicSite: O (0.0, 2.175, 2.175) [0.0, 0.5, 0.5], PeriodicSite: O (2.175, 2.175, 0.0) [0.5, 0.5, 0.0], PeriodicSite: O (2.175, 0.0, 2.175) [0.5, 0.0, 0.5]]",82.30907163608116,"[Element Ca, Element Sn, Element O, Element O, Element O]",False,True,-1.2455479742500004,1.4348996779999998,0.0