,provider,id,Full_Formula,formula,space_group,a_lattice_param,b_lattice_param,c_lattice_param,aplha_degree,beta_degree,gamma_degree,pbc,sits,volume,species_at_sites,is_stable,is_magnetic,formation_energy,energy_above_hull,band_gap
449,mp,mp-1001571.cif,Ca1 Fe1 O3,CaFeO3,Pm-3m,3.83661,3.83661,3.83661,90.0,90.0,90.0,"(True, True, True)","[PeriodicSite: Ca (1.918, 1.918, 1.918) [0.5, 0.5, 0.5], PeriodicSite: Fe (0.0, 0.0, 0.0) [0.0, 0.0, 0.0], PeriodicSite: O (1.918, 0.0, 0.0) [0.5, 0.0, 0.0], PeriodicSite: O (0.0, 1.918, 0.0) [0.0, 0.5, 0.0], PeriodicSite: O (0.0, 0.0, 1.918) [0.0, 0.0, 0.5]]",56.47327359803378,"[Element Ca, Element Fe, Element O, Element O, Element O]",False,True,-2.1771351552500002,0.0521472515000001,0.0
450,mp,mp-1183413.cif,Be1 Hg1 O3,BeHgO3,Pm-3m,3.656609,3.656609,3.656609,90.0,90.0,90.0,"(True, True, True)","[PeriodicSite: Be (1.828, 1.828, 1.828) [0.5, 0.5, 0.5], PeriodicSite: Hg (0.0, 0.0, 0.0) [0.0, 0.0, 0.0], PeriodicSite: O (1.828, 1.828, 0.0) [0.5, 0.5, 0.0], PeriodicSite: O (1.828, 0.0, 1.828) [0.5, 0.0, 0.5], PeriodicSite: O (0.0, 1.828, 1.828) [0.0, 0.5, 0.5]]",48.891748779920675,"[Element Be, Element Hg, Element O, Element O, Element O]",False,True,-0.89402900925,0.602843556749999,0.0
451,mp,mp-1183052.cif,Ac1 B1 O3,AcBO3,Pm-3m,3.721668,3.721668,3.721668,90.0,90.0,90.0,"(True, True, True)","[PeriodicSite: Ac (0.0, 0.0, 0.0) [0.0, 0.0, 0.0], PeriodicSite: B (1.861, 1.861, 1.861) [0.5, 0.5, 0.5], PeriodicSite: O (1.861, 1.861, 0.0) [0.5, 0.5, 0.0], PeriodicSite: O (1.861, 0.0, 1.861) [0.5, 0.0, 0.5], PeriodicSite: O (0.0, 1.861, 1.861) [0.0, 0.5, 0.5]]",51.54812640786059,"[Element Ac, Element B, Element O, Element O, Element O]",False,False,-2.476152931583333,0.7924727446666662,0.8071000000000002
452,mp,mp-1187442.cif,Th1 Pd1 O3,ThPdO3,Pm-3m,4.045796,4.045796,4.045796,90.0,90.0,90.0,"(True, True, True)","[PeriodicSite: Th (0.0, 0.0, 0.0) [0.0, 0.0, 0.0], PeriodicSite: Pd (2.023, 2.023, 2.023) [0.5, 0.5, 0.5], PeriodicSite: O (2.023, 2.023, 0.0) [0.5, 0.5, 0.0], PeriodicSite: O (2.023, 0.0, 2.023) [0.5, 0.0, 0.5], PeriodicSite: O (0.0, 2.023, 2.023) [0.0, 0.5, 0.5]]",66.22347133013452,"[Element Th, Element Pd, Element O, Element O, Element O]",False,False,-2.003477761249999,0.9338902809999974,0.0
453,mp,mp-1185561.cif,Cs1 Sb1 O3,CsSbO3,Pm-3m,4.19501,4.19501,4.19501,90.0,90.0,90.0,"(True, True, True)","[PeriodicSite: Cs (0.0, 0.0, 0.0) [0.0, 0.0, 0.0], PeriodicSite: Sb (2.098, 2.098, 2.098) [0.5, 0.5, 0.5], PeriodicSite: O (2.098, 2.098, 0.0) [0.5, 0.5, 0.0], PeriodicSite: O (2.098, 0.0, 2.098) [0.5, 0.0, 0.5], PeriodicSite: O (0.0, 2.098, 2.098) [0.0, 0.5, 0.5]]",73.8242428170085,"[Element Cs, Element Sb, Element O, Element O, Element O]",False,False,-1.6176811548362067,0.32557818750000056,0.0
454,mp,mp-1185612.cif,Mg1 Zn1 O3,MgZnO3,Pm-3m,3.820297,3.820297,3.820297,90.0,90.0,90.0,"(True, True, True)","[PeriodicSite: Mg (0.0, 0.0, 0.0) [0.0, 0.0, 0.0], PeriodicSite: Zn (1.91, 1.91, 1.91) [0.5, 0.5, 0.5], PeriodicSite: O (1.91, 1.91, 0.0) [0.5, 0.5, 0.0], PeriodicSite: O (1.91, 0.0, 1.91) [0.5, 0.0, 0.5], PeriodicSite: O (0.0, 1.91, 1.91) [0.0, 0.5, 0.5]]",55.75597083930134,"[Element Mg, Element Zn, Element O, Element O, Element O]",False,False,-1.2346839752500003,0.7035462482499986,0.0
455,mp,mp-1210746.cif,Mn1 Co3 C1,MnCo3C,Pm-3m,3.754344,3.754344,3.754344,90.0,90.0,90.0,"(True, True, True)","[PeriodicSite: Mn (1.877, 1.877, 1.877) [0.5, 0.5, 0.5], PeriodicSite: Co (1.877, 0.0, 0.0) [0.5, 0.0, 0.0], PeriodicSite: Co (0.0, 1.877, 0.0) [0.0, 0.5, 0.0], PeriodicSite: Co (0.0, 0.0, 1.877) [0.0, 0.0, 0.5], PeriodicSite: C (0.0, 0.0, 0.0) [0.0, 0.0, 0.0]]",52.91784987325274,"[Element Mn, Element Co, Element Co, Element Co, Element C]",False,True,0.05568029391379241,0.07940379528260788,0.0
456,mp,mp-1185996.cif,Mn1 B1 O3,MnBO3,Pm-3m,3.397224,3.397224,3.397224,90.0,90.0,90.0,"(True, True, True)","[PeriodicSite: Mn (0.0, 0.0, 0.0) [0.0, 0.0, 0.0], PeriodicSite: B (1.699, 1.699, 1.699) [0.5, 0.5, 0.5], PeriodicSite: O (1.699, 1.699, 0.0) [0.5, 0.5, 0.0], PeriodicSite: O (1.699, 0.0, 1.699) [0.5, 0.0, 0.5], PeriodicSite: O (0.0, 1.699, 1.699) [0.0, 0.5, 0.5]]",39.20780690160286,"[Element Mn, Element B, Element O, Element O, Element O]",False,True,-1.3488605426695401,1.0784896244687499,0.0
457,mp,mp-1069603.cif,La1 Al3 Au1,LaAl3Au,I4mm,6.272133771534095,6.272133771534095,6.272133771534095,139.29428745876766,139.29428745876766,58.926406791322236,"(True, True, True)","[PeriodicSite: La (0.0, 0.0, 10.8) [0.9891, 0.9891, -0.0], PeriodicSite: Al (0.0, 0.0, 4.351) [0.3983, 0.3983, 0.0], PeriodicSite: Al (2.181, 2.22e-16, 2.733) [0.2503, 0.7503, 0.5], PeriodicSite: Al (2.22e-16, 2.181, 2.733) [0.7503, 0.2503, 0.5], PeriodicSite: Au (0.0, 0.0, 6.859) [0.628, 0.628, -0.0]]",103.94924623194463,"[Element La, Element Al, Element Al, Element Al, Element Au]",True,False,-0.6605854509999993,0.0,0.0
458,mp,mp-1013716.cif,Ba3 Bi1 As1,Ba3BiAs,Pm-3m,6.577443,6.577443,6.577443,90.0,90.0,90.0,"(True, True, True)","[PeriodicSite: Ba (0.0, 3.289, 3.289) [0.0, 0.5, 0.5], PeriodicSite: Ba (3.289, 0.0, 3.289) [0.5, 0.0, 0.5], PeriodicSite: Ba (3.289, 3.289, 0.0) [0.5, 0.5, 0.0], PeriodicSite: Bi (3.289, 3.289, 3.289) [0.5, 0.5, 0.5], PeriodicSite: As (0.0, 0.0, 0.0) [0.0, 0.0, 0.0]]",284.5583143639169,"[Element Ba, Element Ba, Element Ba, Element Bi, Element As]",False,False,-0.32110191899999985,0.6776658785384617,0.0
459,mp,mp-1187568.cif,Yb1 Cd1 O3,YbCdO3,Pm-3m,4.107449,4.107449,4.107449,90.0,90.0,90.0,"(True, True, True)","[PeriodicSite: Yb (0.0, 0.0, 0.0) [0.0, 0.0, 0.0], PeriodicSite: Cd (2.054, 2.054, 2.054) [0.5, 0.5, 0.5], PeriodicSite: O (2.054, 2.054, 0.0) [0.5, 0.5, 0.0], PeriodicSite: O (2.054, 0.0, 2.054) [0.5, 0.0, 0.5], PeriodicSite: O (0.0, 2.054, 2.054) [0.0, 0.5, 0.5]]",69.29733598081943,"[Element Yb, Element Cd, Element O, Element O, Element O]",False,False,-1.53415943925,0.4641193022499994,0.0
460,mp,mp-1185551.cif,Cs1 Tb1 O3,CsTbO3,Pm-3m,4.593958,4.593958,4.593958,90.0,90.0,90.0,"(True, True, True)","[PeriodicSite: Cs (0.0, 0.0, 0.0) [0.0, 0.0, 0.0], PeriodicSite: Tb (2.297, 2.297, 2.297) [0.5, 0.5, 0.5], PeriodicSite: O (2.297, 2.297, 0.0) [0.5, 0.5, 0.0], PeriodicSite: O (2.297, 0.0, 2.297) [0.5, 0.0, 0.5], PeriodicSite: O (0.0, 2.297, 2.297) [0.0, 0.5, 0.5]]",96.95295739897536,"[Element Cs, Element Tb, Element O, Element O, Element O]",False,True,-2.250727216836207,0.28188261887500055,0.0
461,mp,mp-1184942.cif,K1 Au1 O3,KAuO3,Pm-3m,4.15778,4.15778,4.15778,90.0,90.0,90.0,"(True, True, True)","[PeriodicSite: K (0.0, 0.0, 0.0) [0.0, 0.0, 0.0], PeriodicSite: Au (2.079, 2.079, 2.079) [0.5, 0.5, 0.5], PeriodicSite: O (2.079, 2.079, 0.0) [0.5, 0.5, 0.0], PeriodicSite: O (2.079, 0.0, 2.079) [0.5, 0.0, 0.5], PeriodicSite: O (0.0, 2.079, 2.079) [0.0, 0.5, 0.5]]",71.87610219949094,"[Element K, Element Au, Element O, Element O, Element O]",False,True,-0.5559121178499999,0.36402540924999904,0.0
462,mp,mp-1219033.cif,Sm1 Ga3 Au1,SmGa3Au,I4mm,4.244801622444027,4.244801622444027,6.201054685449637,70.12005672205306,70.12005672205306,90.19452555252903,"(True, True, True)","[PeriodicSite: Sm (4.236, 4.236, 0.1495) [0.9855, 0.9855, 0.02843], PeriodicSite: Ga (4.242, 2.112, 2.701) [0.7516, 0.2508, 0.4978], PeriodicSite: Ga (2.112, 4.242, 2.701) [0.2508, 0.7516, 0.4978], PeriodicSite: Ga (2.119, 2.119, 1.168) [0.3925, 0.3925, 0.2154], PeriodicSite: Au (4.235, 4.235, 4.128) [0.6196, 0.6196, 0.7606]]",97.91348895923721,"[Element Sm, Element Ga, Element Ga, Element Ga, Element Au]",True,False,-0.5795790015000002,0.0,0.0
463,mp,mp-1187321.cif,Tb1 Cu1 O3,TbCuO3,Pm-3m,3.782912,3.782912,3.782912,90.0,90.0,90.0,"(True, True, True)","[PeriodicSite: Tb (0.0, 0.0, 0.0) [0.0, 0.0, 0.0], PeriodicSite: Cu (1.891, 1.891, 1.891) [0.5, 0.5, 0.5], PeriodicSite: O (1.891, 1.891, 0.0) [0.5, 0.5, 0.0], PeriodicSite: O (1.891, 0.0, 1.891) [0.5, 0.0, 0.5], PeriodicSite: O (0.0, 1.891, 1.891) [0.0, 0.5, 0.5]]",54.13507164738998,"[Element Tb, Element Cu, Element O, Element O, Element O]",False,False,-2.252783877249999,0.1563340445000012,0.0
464,mp,mp-1220159.cif,Nd1 Ga3 Pd1,NdGa3Pd,I-4m2,6.1338385046284225,6.1338385046284225,6.1338385046284225,139.9066282493256,139.9066282493256,57.995097711985956,"(True, True, True)","[PeriodicSite: Nd (0.0, 0.0, 0.0) [-0.0, -0.0, 0.0], PeriodicSite: Ga (0.0, 0.0, 6.604) [0.6155, 0.6155, -0.0], PeriodicSite: Ga (0.0, 0.0, 4.126) [0.3845, 0.3845, 0.0], PeriodicSite: Ga (0.0, 2.103, 2.682) [0.75, 0.25, 0.5], PeriodicSite: Pd (2.103, 0.0, 2.682) [0.25, 0.75, 0.5]]",94.8706734849257,"[Element Nd, Element Ga, Element Ga, Element Ga, Element Pd]",True,False,-0.6871259559999991,0.0,0.0
465,mp,mp-1217777.cif,Sr1 Zn1 In3,SrZnIn3,I4mm,6.887776839897164,6.887776839897164,6.887776839897164,140.73125346928603,140.73125346928603,56.744659470492095,"(True, True, True)","[PeriodicSite: Sr (0.0, 0.0, 0.0579) [0.004777, 0.004777, -0.0], PeriodicSite: Zn (0.0, 0.0, 7.442) [0.614, 0.614, 0.0], PeriodicSite: In (0.0, 2.314, 2.933) [0.742, 0.242, 0.5], PeriodicSite: In (2.314, 0.0, 2.933) [0.242, 0.742, 0.5], PeriodicSite: In (0.0, 0.0, 4.816) [0.3973, 0.3973, 0.0]]",129.84983297225554,"[Element Sr, Element Zn, Element In, Element In, Element In]",True,False,-0.29580961133333333,0.0,0.0
466,mp,mp-1101381.cif,Sb1 O1 F3,SbOF3,Immm,5.318809158894968,5.318809158894968,5.318809158894968,138.06621855912957,134.220020001642,63.811022940112565,"(True, True, True)","[PeriodicSite: Sb (0.0, 0.0, 0.0) [0.0, 0.0, 0.0], PeriodicSite: O (1.903, 0.0, 0.0) [0.0, 0.5, 0.5], PeriodicSite: F (0.0, 0.0, 7.14) [0.7907, 0.7907, 0.0], PeriodicSite: F (0.0, 2.069, 0.0) [0.5, 0.0, 0.5], PeriodicSite: F (0.0, 0.0, 1.89) [0.2093, 0.2093, 0.0]]",71.11374126840906,"[Element Sb, Element O, Element F, Element F, Element F]",False,False,-2.2971217752500004,0.043335774750000056,1.4495
467,mp,mp-1068664.cif,Th1 Co1 Si3,ThCoSi3,I4mm,5.561044039850798,5.561044039850798,5.561044039850798,136.10954710891167,136.10954710891167,63.811019095778015,"(True, True, True)","[PeriodicSite: Th (0.0, 0.0, 0.03414) [0.003616, 0.003616, 0.0], PeriodicSite: Co (0.0, 0.0, 6.265) [0.6636, 0.6636, 0.0], PeriodicSite: Si (0.0, 0.0, 3.996) [0.4232, 0.4232, 0.0], PeriodicSite: Si (2.078, 2.22e-16, 2.476) [0.2623, 0.7623, 0.5], PeriodicSite: Si (2.22e-16, 2.078, 2.476) [0.7623, 0.2623, 0.5]]",81.56221490705461,"[Element Th, Element Co, Element Si, Element Si, Element Si]",True,False,-0.6600679770000006,0.0,0.0
468,mp,mp-1186113.cif,Ni1 Sb1 O3,NiSbO3,Pm-3m,3.801767,3.801767,3.801767,90.0,90.0,90.0,"(True, True, True)","[PeriodicSite: Ni (1.901, 1.901, 1.901) [0.5, 0.5, 0.5], PeriodicSite: Sb (0.0, 0.0, 0.0) [0.0, 0.0, 0.0], PeriodicSite: O (1.901, 1.901, 0.0) [0.5, 0.5, 0.0], PeriodicSite: O (1.901, 0.0, 1.901) [0.5, 0.0, 0.5], PeriodicSite: O (0.0, 1.901, 1.901) [0.0, 0.5, 0.5]]",54.94858203961168,"[Element Ni, Element Sb, Element O, Element O, Element O]",False,True,-0.95778077525,0.662873084875006,0.0
469,mp,mp-1187487.cif,Th1 Cu1 O3,ThCuO3,Pm-3m,3.868279,3.868279,3.868279,90.0,90.0,90.0,"(True, True, True)","[PeriodicSite: Th (0.0, 0.0, 0.0) [0.0, 0.0, 0.0], PeriodicSite: Cu (1.934, 1.934, 1.934) [0.5, 0.5, 0.5], PeriodicSite: O (1.934, 1.934, 0.0) [0.5, 0.5, 0.0], PeriodicSite: O (1.934, 0.0, 1.934) [0.5, 0.0, 0.5], PeriodicSite: O (0.0, 1.934, 1.934) [0.0, 0.5, 0.5]]",57.88331164717667,"[Element Th, Element Cu, Element O, Element O, Element O]",False,False,-2.4681732332500004,0.5303822240000056,0.0
470,mp,mp-1184153.cif,Dy1 Sn1 O3,DySnO3,Pm-3m,4.138491,4.138491,4.138491,90.0,90.0,90.0,"(True, True, True)","[PeriodicSite: Dy (0.0, 0.0, 0.0) [0.0, 0.0, 0.0], PeriodicSite: Sn (2.069, 2.069, 2.069) [0.5, 0.5, 0.5], PeriodicSite: O (2.069, 2.069, 0.0) [0.5, 0.5, 0.0], PeriodicSite: O (2.069, 0.0, 2.069) [0.5, 0.0, 0.5], PeriodicSite: O (0.0, 2.069, 2.069) [0.0, 0.5, 0.5]]",70.88038130870991,"[Element Dy, Element Sn, Element O, Element O, Element O]",False,False,-2.15279857025,0.8484255742499949,0.0
471,mp,mp-1209766.cif,Ni1 Ag1 F3,NiAgF3,Pm-3m,4.3472,4.3472,4.3472,90.0,90.0,90.0,"(True, True, True)","[PeriodicSite: Ni (2.174, 2.174, 2.174) [0.5, 0.5, 0.5], PeriodicSite: Ag (0.0, 0.0, 0.0) [0.0, 0.0, 0.0], PeriodicSite: F (2.174, 0.0, 0.0) [0.5, 0.0, 0.0], PeriodicSite: F (0.0, 2.174, 0.0) [0.0, 0.5, 0.0], PeriodicSite: F (0.0, 0.0, 2.174) [0.0, 0.0, 0.5]]",82.154028290048,"[Element Ni, Element Ag, Element F, Element F, Element F]",False,True,-0.9003731368333334,0.9848533860000037,0.0
472,mp,mp-1207210.cif,Sm1 Si1 Pt3,SmSiPt3,P4mm,4.06509942,4.06509942,5.46109093,90.0,90.0,90.0,"(True, True, True)","[PeriodicSite: Sm (2.033, 2.033, 3.831) [0.5, 0.5, 0.7014], PeriodicSite: Si (0.0, 0.0, 5.275) [-0.0, -0.0, 0.966], PeriodicSite: Pt (2.033, 0.0, 1.069) [0.5, -0.0, 0.1957], PeriodicSite: Pt (0.0, 2.033, 1.069) [0.0, 0.5, 0.1957], PeriodicSite: Pt (0.0, 0.0, 3.0) [0.0, 0.0, 0.5494]]",90.24470944245644,"[Element Sm, Element Si, Element Pt, Element Pt, Element Pt]",True,False,-1.0656033449999995,0.0,0.0
473,mp,mp-1017581.cif,La1 Pd3 C1,LaPd3C,Pm-3m,4.384889,4.384889,4.384889,90.0,90.0,90.0,"(True, True, True)","[PeriodicSite: La (0.0, 0.0, 0.0) [0.0, 0.0, 0.0], PeriodicSite: Pd (0.0, 2.192, 2.192) [0.0, 0.5, 0.5], PeriodicSite: Pd (2.192, 2.192, 0.0) [0.5, 0.5, 0.0], PeriodicSite: Pd (2.192, 0.0, 2.192) [0.5, 0.0, 0.5], PeriodicSite: C (2.192, 2.192, 2.192) [0.5, 0.5, 0.5]]",84.3093637881564,"[Element La, Element Pd, Element Pd, Element Pd, Element C]",False,False,-0.18942907849999954,0.46759035650000147,0.0
474,mp,mp-1068256.cif,U1 Si3 Ir1,USi3Ir,I4mm,5.728770592331094,5.728770592331094,5.728770592331094,137.2992146719855,137.2992146719855,61.977997145287425,"(True, True, True)","[PeriodicSite: U (0.0, 0.0, 9.808) [0.9985, 0.9985, 0.0], PeriodicSite: Si (0.0, 0.0, 4.053) [0.4127, 0.4127, 0.0], PeriodicSite: Si (2.086, 2.22e-16, 2.609) [0.2656, 0.7656, 0.5], PeriodicSite: Si (2.22e-16, 2.086, 2.609) [0.7656, 0.2656, 0.5], PeriodicSite: Ir (0.0, 0.0, 6.4) [0.6516, 0.6516, -0.0]]",85.4537301031815,"[Element U, Element Si, Element Si, Element Si, Element Ir]",True,True,-0.5640612200000007,0.0,0.0
475,mp,mp-1183211.cif,B1 Sb1 O3,BSbO3,Pm-3m,3.520705,3.520705,3.520705,90.0,90.0,90.0,"(True, True, True)","[PeriodicSite: B (1.76, 1.76, 1.76) [0.5, 0.5, 0.5], PeriodicSite: Sb (0.0, 0.0, 0.0) [0.0, 0.0, 0.0], PeriodicSite: O (1.76, 1.76, 0.0) [0.5, 0.5, 0.0], PeriodicSite: O (1.76, 0.0, 1.76) [0.5, 0.0, 0.5], PeriodicSite: O (0.0, 1.76, 1.76) [0.0, 0.5, 0.5]]",43.640418944934396,"[Element B, Element Sb, Element O, Element O, Element O]",False,False,-1.261347205083333,1.0143130771666664,1.4054000000000002
476,mp,mp-1184751.cif,In1 Si1 O3,InSiO3,Pm-3m,3.663019,3.663019,3.663019,90.0,90.0,90.0,"(True, True, True)","[PeriodicSite: In (0.0, 0.0, 0.0) [0.0, 0.0, 0.0], PeriodicSite: Si (1.832, 1.832, 1.832) [0.5, 0.5, 0.5], PeriodicSite: O (1.832, 1.832, 0.0) [0.5, 0.5, 0.0], PeriodicSite: O (1.832, 0.0, 1.832) [0.5, 0.0, 0.5], PeriodicSite: O (0.0, 1.832, 1.832) [0.0, 0.5, 0.5]]",49.14932005240002,"[Element In, Element Si, Element O, Element O, Element O]",False,False,-2.0647949392500005,0.5619665706666668,0.0
477,mp,mp-10674.cif,Sm3 Al1 N1,Sm3AlN,Pm-3m,5.468393,5.468393,5.468393,90.0,90.0,90.0,"(True, True, True)","[PeriodicSite: Sm (0.0, 2.734, 2.734) [0.0, 0.5, 0.5], PeriodicSite: Sm (2.734, 0.0, 2.734) [0.5, 0.0, 0.5], PeriodicSite: Sm (2.734, 2.734, 0.0) [0.5, 0.5, 0.0], PeriodicSite: Al (2.734, 2.734, 2.734) [0.5, 0.5, 0.5], PeriodicSite: N (0.0, 0.0, 0.0) [0.0, 0.0, 0.0]]",163.52311671493808,"[Element Sm, Element Sm, Element Sm, Element Al, Element N]",False,False,1.0816578239999999,1.9704026220000008,0.0
478,mp,mp-1187147.cif,Sr1 Er1 O3,SrErO3,Pm-3m,4.334821,4.334821,4.334821,90.0,90.0,90.0,"(True, True, True)","[PeriodicSite: Sr (0.0, 0.0, 0.0) [0.0, 0.0, 0.0], PeriodicSite: Er (2.167, 2.167, 2.167) [0.5, 0.5, 0.5], PeriodicSite: O (2.167, 2.167, 0.0) [0.5, 0.5, 0.0], PeriodicSite: O (2.167, 0.0, 2.167) [0.5, 0.0, 0.5], PeriodicSite: O (0.0, 2.167, 2.167) [0.0, 0.5, 0.5]]",81.45420436686246,"[Element Sr, Element Er, Element O, Element O, Element O]",False,True,-3.0849324265833338,0.22295985224999892,0.0
479,mp,mp-1186138.cif,Na1 In1 O3,NaInO3,Pm-3m,4.238881,4.238881,4.238881,90.0,90.0,90.0,"(True, True, True)","[PeriodicSite: Na (0.0, 0.0, 0.0) [0.0, 0.0, 0.0], PeriodicSite: In (2.119, 2.119, 2.119) [0.5, 0.5, 0.5], PeriodicSite: O (2.119, 2.119, 0.0) [0.5, 0.5, 0.0], PeriodicSite: O (2.119, 0.0, 2.119) [0.5, 0.0, 0.5], PeriodicSite: O (0.0, 2.119, 2.119) [0.0, 0.5, 0.5]]",76.16468912288676,"[Element Na, Element In, Element O, Element O, Element O]",False,True,-1.180125352560345,0.4088390322499986,0.0
480,mp,mp-1178510.cif,Ba1 Pd1 O3,BaPdO3,Pm-3m,4.128267,4.128267,4.128267,90.0,90.0,90.0,"(True, True, True)","[PeriodicSite: Ba (0.0, 0.0, 0.0) [0.0, 0.0, 0.0], PeriodicSite: Pd (2.064, 2.064, 2.064) [0.5, 0.5, 0.5], PeriodicSite: O (0.0, 2.064, 2.064) [0.0, 0.5, 0.5], PeriodicSite: O (2.064, 0.0, 2.064) [0.5, 0.0, 0.5], PeriodicSite: O (2.064, 2.064, 0.0) [0.5, 0.5, 0.0]]",70.35635538244601,"[Element Ba, Element Pd, Element O, Element O, Element O]",False,False,-1.6860544372500001,0.028700658499997367,0.0
481,mp,mp-1183821.cif,Dy1 Rh1 O3,DyRhO3,Pm-3m,3.940347,3.940347,3.940347,90.0,90.0,90.0,"(True, True, True)","[PeriodicSite: Dy (0.0, 0.0, 0.0) [0.0, 0.0, 0.0], PeriodicSite: Rh (1.97, 1.97, 1.97) [0.5, 0.5, 0.5], PeriodicSite: O (1.97, 1.97, 0.0) [0.5, 0.5, 0.0], PeriodicSite: O (1.97, 0.0, 1.97) [0.5, 0.0, 0.5], PeriodicSite: O (0.0, 1.97, 1.97) [0.0, 0.5, 0.5]]",61.17914549087616,"[Element Dy, Element Rh, Element O, Element O, Element O]",False,False,-2.0152040392500004,0.5694803329999996,0.0
482,mp,mp-10061.cif,Er1 B1 Pd3,ErBPd3,Pm-3m,4.304722,4.304722,4.304722,90.0,90.0,90.0,"(True, True, True)","[PeriodicSite: Er (0.0, 0.0, 0.0) [0.0, 0.0, 0.0], PeriodicSite: B (2.152, 2.152, 2.152) [0.5, 0.5, 0.5], PeriodicSite: Pd (0.0, 2.152, 2.152) [0.0, 0.5, 0.5], PeriodicSite: Pd (2.152, 2.152, 0.0) [0.5, 0.5, 0.0], PeriodicSite: Pd (2.152, 0.0, 2.152) [0.5, 0.0, 0.5]]",79.76921708025137,"[Element Er, Element B, Element Pd, Element Pd, Element Pd]",False,False,-0.6363426358333335,0.11476224599999973,0.0
483,mp,mp-1187469.cif,Ti1 Cu1 O3,TiCuO3,Pm-3m,3.850773,3.850773,3.850773,90.0,90.0,90.0,"(True, True, True)","[PeriodicSite: Ti (1.925, 1.925, 1.925) [0.5, 0.5, 0.5], PeriodicSite: Cu (0.0, 0.0, 0.0) [0.0, 0.0, 0.0], PeriodicSite: O (1.925, 1.925, 0.0) [0.5, 0.5, 0.0], PeriodicSite: O (1.925, 0.0, 1.925) [0.5, 0.0, 0.5], PeriodicSite: O (0.0, 1.925, 1.925) [0.0, 0.5, 0.5]]",57.101005279421834,"[Element Ti, Element Cu, Element O, Element O, Element O]",False,True,-1.9368978839166673,0.5419663020000014,0.0
484,mp,mp-1209047.cif,Rb1 Sr1 Cl3,RbSrCl3,Pm-3m,5.696304,5.696304,5.696304,90.0,90.0,90.0,"(True, True, True)","[PeriodicSite: Rb (2.848, 2.848, 2.848) [0.5, 0.5, 0.5], PeriodicSite: Sr (0.0, 0.0, 0.0) [0.0, 0.0, 0.0], PeriodicSite: Cl (2.848, 0.0, 0.0) [0.5, 0.0, 0.0], PeriodicSite: Cl (0.0, 2.848, 0.0) [0.0, 0.5, 0.0], PeriodicSite: Cl (0.0, 0.0, 2.848) [0.0, 0.0, 0.5]]",184.83298442262466,"[Element Rb, Element Sr, Element Cl, Element Cl, Element Cl]",False,False,-2.6004083408333334,0.04105457525000045,4.6262
485,mp,mp-1017558.cif,Er3 Al1 N1,Er3AlN,Pm-3m,4.68650677,4.68650677,4.68650677,90.0,90.0,90.0,"(True, True, True)","[PeriodicSite: Er (2.343, 2.343, 0.0) [0.5, 0.5, -0.0], PeriodicSite: Er (2.343, 0.0, 2.343) [0.5, -0.0, 0.5], PeriodicSite: Er (0.0, 2.343, 2.343) [-0.0, 0.5, 0.5], PeriodicSite: Al (0.0, 0.0, 0.0) [-0.0, -0.0, -0.0], PeriodicSite: N (2.343, 2.343, 2.343) [0.5, 0.5, 0.5]]",102.9313683395319,"[Element Er, Element Er, Element Er, Element Al, Element N]",True,False,-1.0148915029999999,0.0,0.0