,provider,id,Full_Formula,formula,space_group,a_lattice_param,b_lattice_param,c_lattice_param,aplha_degree,beta_degree,gamma_degree,pbc,sits,volume,species_at_sites,is_stable,is_magnetic,formation_energy,energy_above_hull,band_gap
896,mp,mp-1187310.cif,Tb1 Be1 O3,TbBeO3,Pm-3m,3.582893,3.582893,3.582893,90.0,90.0,90.0,"(True, True, True)","[PeriodicSite: Tb (0.0, 0.0, 0.0) [0.0, 0.0, 0.0], PeriodicSite: Be (1.791, 1.791, 1.791) [0.5, 0.5, 0.5], PeriodicSite: O (1.791, 1.791, 0.0) [0.5, 0.5, 0.0], PeriodicSite: O (1.791, 0.0, 1.791) [0.5, 0.0, 0.5], PeriodicSite: O (0.0, 1.791, 1.791) [0.0, 0.5, 0.5]]",45.99403544769507,"[Element Tb, Element Be, Element O, Element O, Element O]",False,True,-2.9019181602499997,0.3316503490000011,0.0
897,mp,mp-1186403.cif,Pa1 Ta1 O3,PaTaO3,Pm-3m,4.037848,4.037848,4.037848,90.0,90.0,90.0,"(True, True, True)","[PeriodicSite: Pa (0.0, 0.0, 0.0) [0.0, 0.0, 0.0], PeriodicSite: Ta (2.019, 2.019, 2.019) [0.5, 0.5, 0.5], PeriodicSite: O (2.019, 2.019, 0.0) [0.5, 0.5, 0.0], PeriodicSite: O (2.019, 0.0, 2.019) [0.5, 0.0, 0.5], PeriodicSite: O (0.0, 2.019, 2.019) [0.0, 0.5, 0.5]]",65.83394786941436,"[Element Pa, Element Ta, Element O, Element O, Element O]",False,True,-2.622387903250001,0.7318351642000014,0.0
898,mp,mp-1220010.cif,Pr1 Ga3 Ni1,PrGa3Ni,I-4m2,4.184012,4.184012,6.034659662011852,69.71652609495423,69.71652609495423,90.0,"(True, True, True)","[PeriodicSite: Pr (0.0, 0.0, 0.0) [0.0, 0.0, 0.0], PeriodicSite: Ga (2.092, 2.092, 1.261) [0.3801, 0.3801, 0.2398], PeriodicSite: Ga (4.184, 4.184, 3.999) [0.6199, 0.6199, 0.7602], PeriodicSite: Ga (2.092, 4.184, 2.63) [0.25, 0.75, 0.5], PeriodicSite: Ni (4.184, 2.092, 2.63) [0.75, 0.25, 0.5]]",92.07557128925654,"[Element Pr, Element Ga, Element Ga, Element Ga, Element Ni]",False,False,-0.5329830394999995,0.046517406000002204,0.0
899,mp,mp-10376.cif,Cr3 Sn1 N1,Cr3SnN,Pm-3m,3.936886,3.936886,3.936886,90.0,90.0,90.0,"(True, True, True)","[PeriodicSite: Cr (1.968, 0.0, 1.968) [0.5, 0.0, 0.5], PeriodicSite: Cr (0.0, 1.968, 1.968) [0.0, 0.5, 0.5], PeriodicSite: Cr (1.968, 1.968, 0.0) [0.5, 0.5, 0.0], PeriodicSite: Sn (0.0, 0.0, 0.0) [0.0, 0.0, 0.0], PeriodicSite: N (1.968, 1.968, 1.968) [0.5, 0.5, 0.5]]",61.01807711709627,"[Element Cr, Element Cr, Element Cr, Element Sn, Element N]",False,True,-0.17782204399999985,0.1258481023333342,0.0
900,mp,mp-1068235.cif,Sr1 Ge3 Ir1,SrGe3Ir,I4mm,5.964663145321361,5.964663145321361,5.964663145321361,135.8896506434476,135.8896506434476,64.1509832417354,"(True, True, True)","[PeriodicSite: Sr (0.0, 0.0, 10.11) [1.0, 1.0, 0.0], PeriodicSite: Ge (2.24, 2.22e-16, 2.566) [0.2539, 0.7539, 0.5], PeriodicSite: Ge (2.22e-16, 2.24, 2.566) [0.7539, 0.2539, 0.5], PeriodicSite: Ge (0.0, 0.0, 4.161) [0.4117, 0.4117, -0.0], PeriodicSite: Ir (0.0, 0.0, 6.567) [0.6496, 0.6496, 0.0]]",101.41410684143666,"[Element Sr, Element Ge, Element Ge, Element Ge, Element Ir]",True,False,-0.546803676333333,0.0,0.0
901,mp,mp-10609.cif,Lu3 Sn1 C1,Lu3SnC,Pm-3m,4.72821961,4.72821961,4.72821961,90.0,90.0,90.0,"(True, True, True)","[PeriodicSite: Lu (2.364, 0.0, 2.364) [0.5, 0.0, 0.5], PeriodicSite: Lu (2.364, 2.364, 0.0) [0.5, 0.5, 0.0], PeriodicSite: Lu (0.0, 2.364, 2.364) [0.0, 0.5, 0.5], PeriodicSite: Sn (0.0, 0.0, 0.0) [0.0, -0.0, 0.0], PeriodicSite: C (2.364, 2.364, 2.364) [0.5, 0.5, 0.5]]",105.7043645113631,"[Element Lu, Element Lu, Element Lu, Element Sn, Element C]",True,False,-0.6695568044999994,0.0,0.0
902,mp,mp-1183972.cif,Cs1 Sr1 O3,CsSrO3,Pm-3m,4.929642,4.929642,4.929642,90.0,90.0,90.0,"(True, True, True)","[PeriodicSite: Cs (0.0, 0.0, 0.0) [0.0, 0.0, 0.0], PeriodicSite: Sr (2.465, 2.465, 2.465) [0.5, 0.5, 0.5], PeriodicSite: O (2.465, 2.465, 0.0) [0.5, 0.5, 0.0], PeriodicSite: O (2.465, 0.0, 2.465) [0.5, 0.0, 0.5], PeriodicSite: O (0.0, 2.465, 2.465) [0.0, 0.5, 0.5]]",119.7970554328997,"[Element Cs, Element Sr, Element O, Element O, Element O]",False,True,-1.3857342301695403,0.43377393999999736,0.0
903,mp,mp-1186134.cif,Na1 Fe1 O3,NaFeO3,Pm-3m,3.830481,3.830481,3.830481,90.0,90.0,90.0,"(True, True, True)","[PeriodicSite: Na (0.0, 0.0, 0.0) [0.0, 0.0, 0.0], PeriodicSite: Fe (1.915, 1.915, 1.915) [0.5, 0.5, 0.5], PeriodicSite: O (1.915, 1.915, 0.0) [0.5, 0.5, 0.0], PeriodicSite: O (1.915, 0.0, 1.915) [0.5, 0.0, 0.5], PeriodicSite: O (0.0, 1.915, 1.915) [0.0, 0.5, 0.5]]",56.203056881149166,"[Element Na, Element Fe, Element O, Element O, Element O]",False,True,-1.2973151845603446,0.14533237624999895,0.0
904,mp,mp-1013531.cif,Sr3 Bi1 N1,Sr3BiN,Pm-3m,6.23,6.23,6.23,90.0,90.0,90.0,"(True, True, True)","[PeriodicSite: Sr (0.0, 3.115, 3.115) [0.0, 0.5, 0.5], PeriodicSite: Sr (3.115, 0.0, 3.115) [0.5, 0.0, 0.5], PeriodicSite: Sr (3.115, 3.115, 0.0) [0.5, 0.5, 0.0], PeriodicSite: Bi (3.115, 3.115, 3.115) [0.5, 0.5, 0.5], PeriodicSite: N (0.0, 0.0, 0.0) [0.0, 0.0, 0.0]]",241.80436700000004,"[Element Sr, Element Sr, Element Sr, Element Bi, Element N]",False,False,0.6222074209999999,1.5656792200000003,0.0
905,mp,mp-1187572.cif,Yb1 Cr1 O3,YbCrO3,Pm-3m,3.777665,3.777665,3.777665,90.0,90.0,90.0,"(True, True, True)","[PeriodicSite: Yb (0.0, 0.0, 0.0) [0.0, 0.0, 0.0], PeriodicSite: Cr (1.889, 1.889, 1.889) [0.5, 0.5, 0.5], PeriodicSite: O (1.889, 1.889, 0.0) [0.5, 0.5, 0.0], PeriodicSite: O (1.889, 0.0, 1.889) [0.5, 0.0, 0.5], PeriodicSite: O (0.0, 1.889, 1.889) [0.0, 0.5, 0.5]]",53.91012357350054,"[Element Yb, Element Cr, Element O, Element O, Element O]",False,True,-2.6756641432500006,0.14199452050000083,0.0
906,mp,mp-1017556.cif,Cu1 Ni3 N1,CuNi3N,Pm-3m,3.70207231,3.70208553,3.70222455,90.0,90.0,90.0,"(True, True, True)","[PeriodicSite: Cu (0.0, 0.0, 0.0) [0.0, -0.0, -0.0], PeriodicSite: Ni (0.0, 1.851, 1.851) [-0.0, 0.5, 0.5], PeriodicSite: Ni (1.851, 1.851, 0.0) [0.5, 0.5, -0.0], PeriodicSite: Ni (1.851, 0.0, 1.851) [0.5, -0.0, 0.5], PeriodicSite: N (1.851, 1.851, 1.851) [0.5, 0.5, 0.5]]",50.7404251421085,"[Element Cu, Element Ni, Element Ni, Element Ni, Element N]",True,True,-0.0821793889999995,0.0,0.0
907,mp,mp-1183406.cif,Ba1 Yb1 O3,BaYbO3,Pm-3m,4.397815,4.397815,4.397815,90.0,90.0,90.0,"(True, True, True)","[PeriodicSite: Ba (0.0, 0.0, 0.0) [0.0, 0.0, 0.0], PeriodicSite: Yb (2.199, 2.199, 2.199) [0.5, 0.5, 0.5], PeriodicSite: O (2.199, 2.199, 0.0) [0.5, 0.5, 0.0], PeriodicSite: O (2.199, 0.0, 2.199) [0.5, 0.0, 0.5], PeriodicSite: O (0.0, 2.199, 2.199) [0.0, 0.5, 0.5]]",85.05715820933828,"[Element Ba, Element Yb, Element O, Element O, Element O]",False,True,-2.47544065525,0.2793235180000009,0.0
908,mp,mp-1183922.cif,Cs1 Nd1 O3,CsNdO3,Pm-3m,4.717574,4.717574,4.717574,90.0,90.0,90.0,"(True, True, True)","[PeriodicSite: Cs (0.0, 0.0, 0.0) [0.0, 0.0, 0.0], PeriodicSite: Nd (2.359, 2.359, 2.359) [0.5, 0.5, 0.5], PeriodicSite: O (2.359, 2.359, 0.0) [0.5, 0.5, 0.0], PeriodicSite: O (2.359, 0.0, 2.359) [0.5, 0.0, 0.5], PeriodicSite: O (0.0, 2.359, 2.359) [0.0, 0.5, 0.5]]",104.99198912886199,"[Element Cs, Element Nd, Element O, Element O, Element O]",False,True,-2.1506919943362073,0.28090147074999905,0.0
909,mp,mp-1227072.cif,Ca1 Ga3 Pt1,CaGa3Pt,I4mm,6.188460025418093,6.188460025418093,6.188460025418093,140.106665641655,140.106665641655,57.69137785561526,"(True, True, True)","[PeriodicSite: Ca (0.0, 0.0, 0.0237) [0.002186, 0.002186, 0.0], PeriodicSite: Ga (-2.22e-16, 2.111, 2.757) [0.7543, 0.2543, 0.5], PeriodicSite: Ga (2.111, -2.22e-16, 2.757) [0.2543, 0.7543, 0.5], PeriodicSite: Ga (0.0, 0.0, 6.591) [0.608, 0.608, 0.0], PeriodicSite: Pt (0.0, 0.0, 4.133) [0.3812, 0.3812, 0.0]]",96.63892594288887,"[Element Ca, Element Ga, Element Ga, Element Ga, Element Pt]",True,False,-0.6547267464999997,0.0,0.0
910,mp,mp-10699.cif,Lu1 Rh3 C1,LuRh3C,Pm-3m,4.11552588,4.11552588,4.11552588,90.0,90.0,90.0,"(True, True, True)","[PeriodicSite: Lu (0.0, 0.0, 0.0) [0.0, 0.0, 0.0], PeriodicSite: Rh (0.0, 2.058, 2.058) [-0.0, 0.5, 0.5], PeriodicSite: Rh (2.058, 2.058, 0.0) [0.5, 0.5, 0.0], PeriodicSite: Rh (2.058, 0.0, 2.058) [0.5, 0.0, 0.5], PeriodicSite: C (2.058, 2.058, 2.058) [0.5, 0.5, 0.5]]",69.7069388222414,"[Element Lu, Element Rh, Element Rh, Element Rh, Element C]",True,False,-0.5521885675000007,0.0,0.0
911,mp,mp-1096862.cif,Cd1 H1 Cl3,CdHCl3,Pm-3m,5.218407,5.218407,5.218407,90.0,90.0,90.0,"(True, True, True)","[PeriodicSite: Cd (2.609, 2.609, 2.609) [0.5, 0.5, 0.5], PeriodicSite: H (0.0, 0.0, 0.0) [0.0, 0.0, 0.0], PeriodicSite: Cl (0.0, 2.609, 2.609) [0.0, 0.5, 0.5], PeriodicSite: Cl (2.609, 2.609, 0.0) [0.5, 0.5, 0.0], PeriodicSite: Cl (2.609, 0.0, 2.609) [0.5, 0.0, 0.5]]",142.10646763194086,"[Element Cd, Element H, Element Cl, Element Cl, Element Cl]",False,True,-0.2896611530000001,0.9342443930000002,0.0
912,mp,mp-1226283.cif,Cr1 W1 O3,CrWO3,R3,4.846085590340517,4.846085590340517,4.846085245184303,86.69283228848695,86.69283228848695,86.69284859422802,"(True, True, True)","[PeriodicSite: Cr (4.848, 0.0, 3.151) [0.6523, 0.6523, 0.6523], PeriodicSite: W (2.567, 0.0, 1.669) [0.3454, 0.3454, 0.3454], PeriodicSite: O (1.93, 1.498, 2.465) [0.0209, 0.4711, 0.5103], PeriodicSite: O (3.467, 0.1304, 0.101) [0.4711, 0.5103, 0.0209], PeriodicSite: O (2.053, -1.628, 2.276) [0.5103, 0.0209, 0.4711]]",113.26051194329801,"[Element Cr, Element W, Element O, Element O, Element O]",False,True,-1.3894844212500004,0.7269175708000013,0.8863000000000001
913,mp,mp-1017577.cif,Ho3 Al1 N1,Ho3AlN,Pm-3m,4.71952011,4.71952011,4.71952011,90.0,90.0,90.0,"(True, True, True)","[PeriodicSite: Ho (2.36, 2.36, 0.0) [0.5, 0.5, 0.0], PeriodicSite: Ho (2.36, 0.0, 2.36) [0.5, 0.0, 0.5], PeriodicSite: Ho (0.0, 2.36, 2.36) [0.0, 0.5, 0.5], PeriodicSite: Al (0.0, 0.0, 0.0) [0.0, 0.0, 0.0], PeriodicSite: N (2.36, 2.36, 2.36) [0.5, 0.5, 0.5]]",105.12197771673038,"[Element Ho, Element Ho, Element Ho, Element Al, Element N]",True,False,-1.0037206490000004,0.0,0.0
914,mp,mp-1206341.cif,Nd1 Sb1 O3,NdSbO3,Pm-3m,4.281575,4.281575,4.281575,90.0,90.0,90.0,"(True, True, True)","[PeriodicSite: Nd (2.141, 2.141, 2.141) [0.5, 0.5, 0.5], PeriodicSite: Sb (0.0, 0.0, 0.0) [0.0, 0.0, 0.0], PeriodicSite: O (2.141, 0.0, 0.0) [0.5, 0.0, 0.0], PeriodicSite: O (0.0, 2.141, 0.0) [0.0, 0.5, 0.0], PeriodicSite: O (0.0, 0.0, 2.141) [0.0, 0.0, 0.5]]",78.48933829513199,"[Element Nd, Element Sb, Element O, Element O, Element O]",False,False,-2.076262824749999,0.7686863123333376,0.0
915,mp,mp-1215537.cif,Yb1 Zn1 Ga3,YbZnGa3,I4mm,4.099458966879286,4.099458966879286,6.204190163597463,70.67655778822288,70.67655778822288,89.9594180578497,"(True, True, True)","[PeriodicSite: Yb (4.101, 4.101, 0.005935) [0.9996, 0.9996, 0.000827], PeriodicSite: Zn (2.05, 2.05, 1.218) [0.3889, 0.3889, 0.222], PeriodicSite: Ga (4.102, 4.102, 4.307) [0.6077, 0.6077, 0.7851], PeriodicSite: Ga (4.1, 2.052, 2.721) [0.7519, 0.252, 0.496], PeriodicSite: Ga (2.052, 4.1, 2.721) [0.252, 0.7519, 0.496]]",92.15297988836367,"[Element Yb, Element Zn, Element Ga, Element Ga, Element Ga]",True,False,-0.41225496849999954,0.0,0.0
916,mp,mp-1075911.cif,Rb1 Nb1 O3,RbNbO3,Pm-3m,4.098856,4.098856,4.098856,90.0,90.0,90.0,"(True, True, True)","[PeriodicSite: Rb (2.049, 2.049, 2.049) [0.5, 0.5, 0.5], PeriodicSite: Nb (0.0, 0.0, 0.0) [0.0, 0.0, 0.0], PeriodicSite: O (2.049, 0.0, 0.0) [0.5, 0.0, 0.0], PeriodicSite: O (0.0, 2.049, 0.0) [0.0, 0.5, 0.0], PeriodicSite: O (0.0, 0.0, 2.049) [0.0, 0.0, 0.5]]",68.86332417595558,"[Element Rb, Element Nb, Element O, Element O, Element O]",False,False,-2.7570778527499997,0.08273654200000102,1.3563000000000003
917,mp,mp-1018629.cif,Y1 Pd3 C1,YPd3C,Pm-3m,4.299661,4.299661,4.299661,90.0,90.0,90.0,"(True, True, True)","[PeriodicSite: Y (0.0, 0.0, 0.0) [0.0, 0.0, 0.0], PeriodicSite: Pd (0.0, 2.15, 2.15) [0.0, 0.5, 0.5], PeriodicSite: Pd (2.15, 2.15, 0.0) [0.5, 0.5, 0.0], PeriodicSite: Pd (2.15, 0.0, 2.15) [0.5, 0.0, 0.5], PeriodicSite: C (2.15, 2.15, 2.15) [0.5, 0.5, 0.5]]",79.48819715244197,"[Element Y, Element Pd, Element Pd, Element Pd, Element C]",False,False,-0.2513111308333336,0.4381692785000002,0.0
918,mp,mp-1070394.cif,Ce1 Si3 Rh1,CeSi3Rh,I4mm,5.749593510628703,5.749593510628703,5.749593510628703,136.92629538970397,136.92629538970397,62.55147273116022,"(True, True, True)","[PeriodicSite: Ce (0.0, 0.0, 0.009165) [0.0009325, 0.0009325, 0.0], PeriodicSite: Si (0.0, 0.0, 4.098) [0.417, 0.417, -0.0], PeriodicSite: Si (2.111, 0.0, 2.62) [0.2666, 0.7666, 0.5], PeriodicSite: Si (0.0, 2.111, 2.62) [0.7666, 0.2666, 0.5], PeriodicSite: Rh (0.0, 0.0, 6.466) [0.6579, 0.6579, -0.0]]",87.56733367774123,"[Element Ce, Element Si, Element Si, Element Si, Element Rh]",True,True,-0.8215353089999994,0.0,0.0
919,mp,mp-1217573.cif,Tb1 Al3 Ag1,TbAl3Ag,Imm2,4.191552,4.185423,6.383764501021164,70.86362778782575,70.8345070880213,90.0,"(True, True, True)","[PeriodicSite: Tb (-2.093, -2.096, -5.653) [0.000161, 0.000161, 0.9997], PeriodicSite: Al (-4.185, -2.096, -2.834) [0.2494, 0.7494, 0.5012], PeriodicSite: Al (-4.185, -4.192, -4.414) [0.6097, 0.6097, 0.7806], PeriodicSite: Al (-2.093, -2.096, -1.242) [0.3902, 0.3902, 0.2197], PeriodicSite: Ag (-2.093, -4.192, -2.821) [0.7506, 0.2506, 0.4989]]",99.210678674575,"[Element Tb, Element Al, Element Al, Element Al, Element Ag]",False,False,-0.356345413333333,0.00034698086666296035,0.0
920,mp,mp-10134.cif,Tm1 B1 Pd3,TmBPd3,Pm-3m,4.297151,4.297151,4.297151,90.0,90.0,90.0,"(True, True, True)","[PeriodicSite: Tm (0.0, 0.0, 0.0) [0.0, 0.0, 0.0], PeriodicSite: B (2.149, 2.149, 2.149) [0.5, 0.5, 0.5], PeriodicSite: Pd (2.149, 0.0, 2.149) [0.5, 0.0, 0.5], PeriodicSite: Pd (0.0, 2.149, 2.149) [0.0, 0.5, 0.5], PeriodicSite: Pd (2.149, 2.149, 0.0) [0.5, 0.5, 0.0]]",79.34907065360815,"[Element Tm, Element B, Element Pd, Element Pd, Element Pd]",False,False,-0.6412664431666663,0.11403531081818397,0.0
921,mp,mp-1076782.cif,Ba1 Co1 O3,BaCoO3,Pm-3m,3.981593,3.981593,3.981593,90.0,90.0,90.0,"(True, True, True)","[PeriodicSite: Ba (1.991, 1.991, 1.991) [0.5, 0.5, 0.5], PeriodicSite: Co (0.0, 0.0, 0.0) [0.0, 0.0, 0.0], PeriodicSite: O (1.991, 0.0, 0.0) [0.5, 0.0, 0.0], PeriodicSite: O (0.0, 1.991, 0.0) [0.0, 0.5, 0.0], PeriodicSite: O (0.0, 0.0, 1.991) [0.0, 0.0, 0.5]]",63.120523575171546,"[Element Ba, Element Co, Element O, Element O, Element O]",False,True,-1.8314159042500002,0.22222526900000084,0.0
922,mp,mp-1184481.cif,Gd1 Cu1 O3,GdCuO3,Pm-3m,3.798793,3.798793,3.798793,90.0,90.0,90.0,"(True, True, True)","[PeriodicSite: Gd (0.0, 0.0, 0.0) [0.0, 0.0, 0.0], PeriodicSite: Cu (1.899, 1.899, 1.899) [0.5, 0.5, 0.5], PeriodicSite: O (1.899, 1.899, 0.0) [0.5, 0.5, 0.0], PeriodicSite: O (1.899, 0.0, 1.899) [0.5, 0.0, 0.5], PeriodicSite: O (0.0, 1.899, 1.899) [0.0, 0.5, 0.5]]",54.819729366320175,"[Element Gd, Element Cu, Element O, Element O, Element O]",False,True,-2.247125961249999,0.15920760131249878,0.0
923,mp,mp-1068389.cif,Sn1 C1 Cl3,SnCCl3,Pm-3m,5.269072,5.269072,5.269072,90.0,90.0,90.0,"(True, True, True)","[PeriodicSite: Sn (2.635, 2.635, 2.635) [0.5, 0.5, 0.5], PeriodicSite: C (0.0, 0.0, 0.0) [0.0, 0.0, 0.0], PeriodicSite: Cl (2.635, 2.635, 0.0) [0.5, 0.5, 0.0], PeriodicSite: Cl (2.635, 0.0, 2.635) [0.5, 0.0, 0.5], PeriodicSite: Cl (0.0, 2.635, 2.635) [0.0, 0.5, 0.5]]",146.2858768609199,"[Element Sn, Element C, Element Cl, Element Cl, Element Cl]",False,True,0.5170334074999999,1.651311073750001,0.0
924,mp,mp-1186345.cif,Ni1 Pd1 O3,NiPdO3,Pm-3m,3.690086,3.690086,3.690086,90.0,90.0,90.0,"(True, True, True)","[PeriodicSite: Ni (1.845, 1.845, 1.845) [0.5, 0.5, 0.5], PeriodicSite: Pd (0.0, 0.0, 0.0) [0.0, 0.0, 0.0], PeriodicSite: O (1.845, 1.845, 0.0) [0.5, 0.5, 0.0], PeriodicSite: O (1.845, 0.0, 1.845) [0.5, 0.0, 0.5], PeriodicSite: O (0.0, 1.845, 1.845) [0.0, 0.5, 0.5]]",50.24692203567436,"[Element Ni, Element Pd, Element O, Element O, Element O]",False,True,-0.14358288124999988,0.7809306560000007,0.0
925,mp,mp-1184162.cif,Er1 Ir1 O3,ErIrO3,Pm-3m,3.962793,3.962793,3.962793,90.0,90.0,90.0,"(True, True, True)","[PeriodicSite: Er (0.0, 0.0, 0.0) [0.0, 0.0, 0.0], PeriodicSite: Ir (1.981, 1.981, 1.981) [0.5, 0.5, 0.5], PeriodicSite: O (1.981, 1.981, 0.0) [0.5, 0.5, 0.0], PeriodicSite: O (1.981, 0.0, 1.981) [0.5, 0.0, 0.5], PeriodicSite: O (0.0, 1.981, 1.981) [0.0, 0.5, 0.5]]",62.230624822273896,"[Element Er, Element Ir, Element O, Element O, Element O]",False,False,-1.77003566925,0.8266765342499998,0.0
926,mp,mp-1210555.cif,Mn3 Sn1 H1,Mn3SnH,Pm-3m,4.0039167,4.00388188,4.00389929,90.0,90.0,90.0,"(True, True, True)","[PeriodicSite: Mn (2.002, 0.0, 0.0) [0.5, 0.0, 0.0], PeriodicSite: Mn (0.0, 2.002, 0.0) [0.0, 0.5, 0.0], PeriodicSite: Mn (0.0, 0.0, 2.002) [0.0, 0.0, 0.5], PeriodicSite: Sn (2.002, 2.002, 2.002) [0.5, 0.5, 0.5], PeriodicSite: H (0.0, 0.0, 0.0) [-0.0, -0.0, -0.0]]",64.18734843162305,"[Element Mn, Element Mn, Element Mn, Element Sn, Element H]",True,True,-0.04413329075862151,0.0,0.0
927,mp,mp-1185692.cif,Mg1 Be1 O3,MgBeO3,Pm-3m,3.490528,3.490528,3.490528,90.0,90.0,90.0,"(True, True, True)","[PeriodicSite: Mg (0.0, 0.0, 0.0) [0.0, 0.0, 0.0], PeriodicSite: Be (1.745, 1.745, 1.745) [0.5, 0.5, 0.5], PeriodicSite: O (1.745, 1.745, 0.0) [0.5, 0.5, 0.0], PeriodicSite: O (1.745, 0.0, 1.745) [0.5, 0.0, 0.5], PeriodicSite: O (0.0, 1.745, 1.745) [0.0, 0.5, 0.5]]",42.52784519741567,"[Element Mg, Element Be, Element O, Element O, Element O]",False,True,-1.81333868225,0.6496742172499994,0.0
928,mp,mp-1013588.cif,Sr3 Sb1 P1,Sr3SbP,Pm-3m,5.74,5.74,5.74,90.0,90.0,90.0,"(True, True, True)","[PeriodicSite: Sr (0.0, 2.87, 2.87) [0.0, 0.5, 0.5], PeriodicSite: Sr (2.87, 0.0, 2.87) [0.5, 0.0, 0.5], PeriodicSite: Sr (2.87, 2.87, 0.0) [0.5, 0.5, 0.0], PeriodicSite: Sb (0.0, 0.0, 0.0) [0.0, 0.0, 0.0], PeriodicSite: P (2.87, 2.87, 2.87) [0.5, 0.5, 0.5]]",189.119224,"[Element Sr, Element Sr, Element Sr, Element Sb, Element P]",False,False,-0.9606177126666665,0.09617192380555606,0.34189999999999987
929,mp,mp-1226654.cif,Ce1 Al3 Cu1,CeAl3Cu,I-4m2,6.130488723085868,6.130488723085868,6.130488723085868,139.71461618158253,139.71461618158253,58.28687054422797,"(True, True, True)","[PeriodicSite: Ce (0.0, 0.0, 0.0) [0.0, 0.0, 0.0], PeriodicSite: Al (0.0, 0.0, 6.614) [0.6176, 0.6176, 0.0], PeriodicSite: Al (0.0, 0.0, 4.095) [0.3824, 0.3824, 0.0], PeriodicSite: Al (0.0, 2.111, 2.677) [0.75, 0.25, 0.5], PeriodicSite: Cu (2.111, 0.0, 2.677) [0.25, 0.75, 0.5]]",95.4517334166851,"[Element Ce, Element Al, Element Al, Element Al, Element Cu]",False,True,-0.3379791129999994,0.0816722340000009,0.0
930,mp,mp-1206999.cif,Sm1 Ge1 Pd3,SmGePd3,Pm-3m,4.714479,4.714479,4.714479,90.0,90.0,90.0,"(True, True, True)","[PeriodicSite: Sm (2.357, 2.357, 2.357) [0.5, 0.5, 0.5], PeriodicSite: Ge (0.0, 0.0, 0.0) [0.0, 0.0, 0.0], PeriodicSite: Pd (2.357, 0.0, 0.0) [0.5, 0.0, 0.0], PeriodicSite: Pd (0.0, 2.357, 0.0) [0.0, 0.5, 0.0], PeriodicSite: Pd (0.0, 0.0, 2.357) [0.0, 0.0, 0.5]]",104.78548230971651,"[Element Sm, Element Ge, Element Pd, Element Pd, Element Pd]",False,False,-0.466555116,0.3398895764117622,0.0
931,mp,mp-1016881.cif,Cd1 Sn1 O3,CdSnO3,Pm-3m,4.057399,4.057399,4.057399,90.0,90.0,90.0,"(True, True, True)","[PeriodicSite: Cd (0.0, 0.0, 0.0) [0.0, 0.0, 0.0], PeriodicSite: Sn (2.029, 2.029, 2.029) [0.5, 0.5, 0.5], PeriodicSite: O (2.029, 2.029, 0.0) [0.5, 0.5, 0.0], PeriodicSite: O (2.029, 0.0, 2.029) [0.5, 0.0, 0.5], PeriodicSite: O (0.0, 2.029, 2.029) [0.0, 0.5, 0.5]]",66.7948768517519,"[Element Cd, Element Sn, Element O, Element O, Element O]",False,False,-1.49962807625,0.34630721799999975,0.0
932,mp,mp-1207302.cif,Cs1 Pd1 F3,CsPdF3,Pm-3m,4.414264,4.414264,4.414264,90.0,90.0,90.0,"(True, True, True)","[PeriodicSite: Cs (2.207, 2.207, 2.207) [0.5, 0.5, 0.5], PeriodicSite: Pd (0.0, 0.0, 0.0) [0.0, 0.0, 0.0], PeriodicSite: F (2.207, 0.0, 0.0) [0.5, 0.0, 0.0], PeriodicSite: F (0.0, 2.207, 0.0) [0.0, 0.5, 0.0], PeriodicSite: F (0.0, 0.0, 2.207) [0.0, 0.0, 0.5]]",86.01514171656484,"[Element Cs, Element Pd, Element F, Element F, Element F]",False,False,-2.1021698150862065,0.07359171799999853,0.0