,provider,id,Full_Formula,formula,space_group,a_lattice_param,b_lattice_param,c_lattice_param,aplha_degree,beta_degree,gamma_degree,pbc,sits,volume,species_at_sites,is_stable,is_magnetic,formation_energy,energy_above_hull,band_gap
673,mp,mp-976331.cif,Li1 Lu1 O3,LiLuO3,Pm-3m,3.629798,3.629798,3.629798,90.0,90.0,90.0,"(True, True, True)","[PeriodicSite: Li (1.815, 1.815, 1.815) [0.5, 0.5, 0.5], PeriodicSite: Lu (0.0, 0.0, 0.0) [0.0, 0.0, 0.0], PeriodicSite: O (1.815, 1.815, 0.0) [0.5, 0.5, 0.0], PeriodicSite: O (1.815, 0.0, 1.815) [0.5, 0.0, 0.5], PeriodicSite: O (0.0, 1.815, 1.815) [0.0, 0.5, 0.5]]",47.824162242947324,"[Element Li, Element Lu, Element O, Element O, Element O]",False,True,-2.193273853916666,0.5373579508392865,0.0
674,mp,mp-1206401.cif,La1 Rh3 C1,LaRh3C,Pm-3m,4.266945,4.266945,4.266945,90.0,90.0,90.0,"(True, True, True)","[PeriodicSite: La (2.133, 2.133, 2.133) [0.5, 0.5, 0.5], PeriodicSite: Rh (2.133, 0.0, 0.0) [0.5, 0.0, 0.0], PeriodicSite: Rh (0.0, 2.133, 0.0) [0.0, 0.5, 0.0], PeriodicSite: Rh (0.0, 0.0, 2.133) [0.0, 0.0, 0.5], PeriodicSite: C (0.0, 0.0, 0.0) [0.0, 0.0, 0.0]]",77.68749799903784,"[Element La, Element Rh, Element Rh, Element Rh, Element C]",False,False,-0.3725885245000001,0.04808615350000078,0.0
675,mp,mp-1094052.cif,Sm3 Al1 N1,Sm3AlN,Pm-3m,4.90354893,4.90353862,4.90353862,90.0,90.0,90.0,"(True, True, True)","[PeriodicSite: Sm (2.452, 2.452, 0.0) [0.5, 0.5, -0.0], PeriodicSite: Sm (2.452, 0.0, 2.452) [0.5, 0.0, 0.5], PeriodicSite: Sm (0.0, 2.452, 2.452) [-0.0, 0.5, 0.5], PeriodicSite: Al (0.0, 0.0, 0.0) [-0.0, 0.0, -0.0], PeriodicSite: N (2.452, 2.452, 2.452) [0.5, 0.5, 0.5]]",117.90431881459732,"[Element Sm, Element Sm, Element Sm, Element Al, Element N]",True,False,-0.8887447979999997,0.0,0.0
676,mp,mp-1220217.cif,Nd1 Ga3 Ag1,NdGa3Ag,I4mm,6.13373283565693,6.13373283565693,6.13373283565693,137.35712588529833,137.35712588529833,61.889030638449505,"(True, True, True)","[PeriodicSite: Nd (0.0, 0.0, 10.5) [0.9983, 0.9983, 0.0], PeriodicSite: Ga (0.0, 0.0, 4.025) [0.3826, 0.3826, 0.0], PeriodicSite: Ga (-2.22e-16, 2.23, 2.617) [0.7488, 0.2488, 0.5], PeriodicSite: Ga (2.23, -2.22e-16, 2.617) [0.2488, 0.7488, 0.5], PeriodicSite: Ag (0.0, 0.0, 6.541) [0.6216, 0.6216, 0.0]]",104.66460460998466,"[Element Nd, Element Ga, Element Ga, Element Ga, Element Ag]",False,False,-0.4372293133333329,0.02120687166666224,0.0
677,mp,mp-20978.cif,Ho3 Tl1 C1,Ho3TlC,Pm-3m,5.579005,5.579005,5.579005,90.0,90.0,90.0,"(True, True, True)","[PeriodicSite: Ho (0.0, 2.79, 2.79) [0.0, 0.5, 0.5], PeriodicSite: Ho (2.79, 0.0, 2.79) [0.5, 0.0, 0.5], PeriodicSite: Ho (2.79, 2.79, 0.0) [0.5, 0.5, 0.0], PeriodicSite: Tl (2.79, 2.79, 2.79) [0.5, 0.5, 0.5], PeriodicSite: C (0.0, 0.0, 0.0) [0.0, 0.0, 0.0]]",173.64818641803348,"[Element Ho, Element Ho, Element Ho, Element Tl, Element C]",False,False,1.6227107978333337,1.9287311880000013,0.0
678,mp,mp-1184447.cif,Eu1 Tc1 O3,EuTcO3,Pm-3m,3.967972,3.967972,3.967972,90.0,90.0,90.0,"(True, True, True)","[PeriodicSite: Eu (0.0, 0.0, 0.0) [0.0, 0.0, 0.0], PeriodicSite: Tc (1.984, 1.984, 1.984) [0.5, 0.5, 0.5], PeriodicSite: O (1.984, 1.984, 0.0) [0.5, 0.5, 0.0], PeriodicSite: O (1.984, 0.0, 1.984) [0.5, 0.0, 0.5], PeriodicSite: O (0.0, 1.984, 1.984) [0.0, 0.5, 0.5]]",62.47493265931672,"[Element Eu, Element Tc, Element O, Element O, Element O]",False,True,-2.4306373002499995,0.02026907058333549,0.0
679,mp,mp-20543.cif,Pr3 Sn1 C1,Pr3SnC,Pm-3m,5.866391,5.866391,5.866391,90.0,90.0,90.0,"(True, True, True)","[PeriodicSite: Pr (0.0, 2.933, 2.933) [0.0, 0.5, 0.5], PeriodicSite: Pr (2.933, 0.0, 2.933) [0.5, 0.0, 0.5], PeriodicSite: Pr (2.933, 2.933, 0.0) [0.5, 0.5, 0.0], PeriodicSite: Sn (2.933, 2.933, 2.933) [0.5, 0.5, 0.5], PeriodicSite: C (0.0, 0.0, 0.0) [0.0, 0.0, 0.0]]",201.88916746484762,"[Element Pr, Element Pr, Element Pr, Element Sn, Element C]",False,False,1.4134542225000004,1.8232932080000008,0.0
680,mp,mp-3448.cif,K1 Mg1 F3,KMgF3,Pm-3m,3.97846823,3.97846823,3.97846823,90.0,90.0,90.0,"(True, True, True)","[PeriodicSite: K (1.989, 1.989, 1.989) [0.5, 0.5, 0.5], PeriodicSite: Mg (0.0, 0.0, 0.0) [-0.0, 0.0, 0.0], PeriodicSite: F (0.0, 1.989, 0.0) [-0.0, 0.5, -0.0], PeriodicSite: F (0.0, 0.0, 1.989) [0.0, -0.0, 0.5], PeriodicSite: F (1.989, 0.0, 0.0) [0.5, -0.0, -0.0]]",62.97202846293481,"[Element K, Element Mg, Element F, Element F, Element F]",True,False,-3.5478812441,0.0,6.9536999999999995
681,mp,mp-10351.cif,Tm3 Ga1 C1,Tm3GaC,Pm-3m,5.225463,5.225463,5.225463,90.0,90.0,90.0,"(True, True, True)","[PeriodicSite: Tm (0.0, 2.613, 2.613) [0.0, 0.5, 0.5], PeriodicSite: Tm (2.613, 0.0, 2.613) [0.5, 0.0, 0.5], PeriodicSite: Tm (2.613, 2.613, 0.0) [0.5, 0.5, 0.0], PeriodicSite: Ga (2.613, 2.613, 2.613) [0.5, 0.5, 0.5], PeriodicSite: C (0.0, 0.0, 0.0) [0.0, 0.0, 0.0]]",142.68368955345835,"[Element Tm, Element Tm, Element Tm, Element Ga, Element C]",False,False,1.189176031000001,1.6429009489999986,0.0
682,mp,mp-998193.cif,Rb1 Sn1 F3,RbSnF3,P1,4.609908,4.639338082918511,5.300348898437346,96.68175125296231,94.43941502725423,89.56276905598112,"(True, True, True)","[PeriodicSite: Rb (0.2676, 0.4077, 4.83) [0.0236, 0.03385, 0.9203], PeriodicSite: Sn (-2.087, -1.95, 2.575) [0.4926, 0.4853, 0.4906], PeriodicSite: F (-4.281, -1.957, 2.986) [0.9755, 0.497, 0.5688], PeriodicSite: F (-2.013, -1.836, 4.666) [0.5119, 0.5134, 0.889], PeriodicSite: F (-2.088, -4.105, 2.999) [0.4964, 0.9604, 0.5713]]",112.25028907001969,"[Element Rb, Element Sn, Element F, Element F, Element F]",False,False,-2.743791204,0.042196891625001065,3.4052999999999995
683,mp,mp-1186600.cif,Pm1 Mg1 O3,PmMgO3,Pm-3m,3.89501,3.89501,3.89501,90.0,90.0,90.0,"(True, True, True)","[PeriodicSite: Pm (0.0, 0.0, 0.0) [0.0, 0.0, 0.0], PeriodicSite: Mg (1.948, 1.948, 1.948) [0.5, 0.5, 0.5], PeriodicSite: O (1.948, 1.948, 0.0) [0.5, 0.5, 0.0], PeriodicSite: O (1.948, 0.0, 1.948) [0.5, 0.0, 0.5], PeriodicSite: O (0.0, 1.948, 1.948) [0.0, 0.5, 0.5]]",59.091597506918504,"[Element Pm, Element Mg, Element O, Element O, Element O]",False,True,-2.827708096749999,0.3123401598750011,0.0
684,mp,mp-1016879.cif,Cd1 Si1 O3,CdSiO3,Pm-3m,3.61992,3.61992,3.61992,90.0,90.0,90.0,"(True, True, True)","[PeriodicSite: Cd (0.0, 0.0, 0.0) [0.0, 0.0, 0.0], PeriodicSite: Si (1.81, 1.81, 1.81) [0.5, 0.5, 0.5], PeriodicSite: O (1.81, 1.81, 0.0) [0.5, 0.5, 0.0], PeriodicSite: O (1.81, 0.0, 1.81) [0.5, 0.0, 0.5], PeriodicSite: O (0.0, 1.81, 1.81) [0.0, 0.5, 0.5]]",47.43478301350349,"[Element Cd, Element Si, Element O, Element O, Element O]",False,False,-2.16928971125,0.37450626650000096,0.6505999999999998
685,mp,mp-1186471.cif,Pr1 Pb1 O3,PrPbO3,Pm-3m,4.537287,4.537287,4.537287,90.0,90.0,90.0,"(True, True, True)","[PeriodicSite: Pr (2.269, 2.269, 2.269) [0.5, 0.5, 0.5], PeriodicSite: Pb (0.0, 0.0, 0.0) [0.0, 0.0, 0.0], PeriodicSite: O (2.269, 2.269, 0.0) [0.5, 0.5, 0.0], PeriodicSite: O (2.269, 0.0, 2.269) [0.5, 0.0, 0.5], PeriodicSite: O (0.0, 2.269, 2.269) [0.0, 0.5, 0.5]]",93.4090064158571,"[Element Pr, Element Pb, Element O, Element O, Element O]",False,True,-1.9842390982499993,0.5854630621250001,0.0
686,mp,mp-1207184.cif,Dy1 Sb1 O3,DySbO3,Pm-3m,4.248024,4.248024,4.248024,90.0,90.0,90.0,"(True, True, True)","[PeriodicSite: Dy (2.124, 2.124, 2.124) [0.5, 0.5, 0.5], PeriodicSite: Sb (0.0, 0.0, 0.0) [0.0, 0.0, 0.0], PeriodicSite: O (2.124, 0.0, 0.0) [0.5, 0.0, 0.0], PeriodicSite: O (0.0, 2.124, 0.0) [0.0, 0.5, 0.0], PeriodicSite: O (0.0, 0.0, 2.124) [0.0, 0.0, 0.5]]",76.65860027562857,"[Element Dy, Element Sb, Element O, Element O, Element O]",False,False,-1.8966041932500004,1.0392703891999995,0.0
687,mp,mp-6951.cif,Rb1 Cd1 F3,RbCdF3,Pm-3m,4.42498073,4.42498073,4.42498073,90.0,90.0,90.0,"(True, True, True)","[PeriodicSite: Rb (0.0, 0.0, 0.0) [-0.0, 0.0, 0.0], PeriodicSite: Cd (2.212, 2.212, 2.212) [0.5, 0.5, 0.5], PeriodicSite: F (0.0, 2.212, 2.212) [0.0, 0.5, 0.5], PeriodicSite: F (2.212, 0.0, 2.212) [0.5, 0.0, 0.5], PeriodicSite: F (2.212, 2.212, 0.0) [0.5, 0.5, 0.0]]",86.64313367399816,"[Element Rb, Element Cd, Element F, Element F, Element F]",True,False,-2.705757673,0.0,3.1745
688,mp,mp-1187576.cif,Yb1 Nd1 O3,YbNdO3,Pm-3m,4.16297,4.16297,4.16297,90.0,90.0,90.0,"(True, True, True)","[PeriodicSite: Yb (2.081, 2.081, 2.081) [0.5, 0.5, 0.5], PeriodicSite: Nd (0.0, 0.0, 0.0) [0.0, 0.0, 0.0], PeriodicSite: O (2.081, 2.081, 0.0) [0.5, 0.5, 0.0], PeriodicSite: O (2.081, 0.0, 2.081) [0.5, 0.0, 0.5], PeriodicSite: O (0.0, 2.081, 2.081) [0.0, 0.5, 0.5]]",72.14559900703006,"[Element Yb, Element Nd, Element O, Element O, Element O]",False,True,-2.71287343075,0.635569899,0.0
689,mp,mp-1184234.cif,Fe1 Ag1 O3,FeAgO3,Pm-3m,3.862385,3.862385,3.862385,90.0,90.0,90.0,"(True, True, True)","[PeriodicSite: Fe (1.931, 1.931, 1.931) [0.5, 0.5, 0.5], PeriodicSite: Ag (0.0, 0.0, 0.0) [0.0, 0.0, 0.0], PeriodicSite: O (1.931, 1.931, 0.0) [0.5, 0.5, 0.0], PeriodicSite: O (1.931, 0.0, 1.931) [0.5, 0.0, 0.5], PeriodicSite: O (0.0, 1.931, 1.931) [0.0, 0.5, 0.5]]",57.61912852121193,"[Element Fe, Element Ag, Element O, Element O, Element O]",False,True,-0.6978621085833332,0.34582241604166697,0.0
690,mp,mp-1225284.cif,Fe3 Sn1 Sb1,Fe3SnSb,P3m1,4.209408432069879,4.211204,5.399645129810013,90.0,89.97470684383214,59.9858884843549,"(True, True, True)","[PeriodicSite: Fe (-2.106, -1.216, -1.829) [0.3335, 0.3333, 0.3386], PeriodicSite: Fe (-4.211, -2.43, -3.554) [0.6666, 0.6667, 0.6581], PeriodicSite: Fe (-2.106, -3.645, -2.714) [1.0, 9e-06, 0.5024], PeriodicSite: Sn (-2.106, -1.216, -4.435) [0.3332, 0.3334, 0.8213], PeriodicSite: Sb (-4.211, -2.43, -0.9701) [0.6668, 0.6666, 0.1795]]",82.88221856263685,"[Element Fe, Element Fe, Element Fe, Element Sn, Element Sb]",False,True,0.11541353500000043,0.16330464799999955,0.0
691,mp,mp-1206516.cif,Lu3 In1 C1,Lu3InC,Pm-3m,4.75349159,4.75349159,4.75349159,90.0,90.0,90.0,"(True, True, True)","[PeriodicSite: Lu (2.377, 0.0, 0.0) [0.5, -0.0, -0.0], PeriodicSite: Lu (0.0, 2.377, 0.0) [-0.0, 0.5, -0.0], PeriodicSite: Lu (0.0, 0.0, 2.377) [-0.0, 0.0, 0.5], PeriodicSite: In (2.377, 2.377, 2.377) [0.5, 0.5, 0.5], PeriodicSite: C (0.0, 0.0, 0.0) [0.0, 0.0, 0.0]]",107.40838576530207,"[Element Lu, Element Lu, Element Lu, Element In, Element C]",True,False,-0.5752419034999996,0.0,0.0
692,mp,mp-3323.cif,Sr1 Zr1 O3,SrZrO3,Pm-3m,4.197594,4.197594,4.197594,90.0,90.0,90.0,"(True, True, True)","[PeriodicSite: Sr (2.099, 2.099, 2.099) [0.5, 0.5, 0.5], PeriodicSite: Zr (0.0, 0.0, 0.0) [0.0, 0.0, 0.0], PeriodicSite: O (0.0, 2.099, 0.0) [0.0, 0.5, 0.0], PeriodicSite: O (0.0, 0.0, 2.099) [0.0, 0.0, 0.5], PeriodicSite: O (2.099, 0.0, 0.0) [0.5, 0.0, 0.0]]",73.96074740540564,"[Element Sr, Element Zr, Element O, Element O, Element O]",False,False,-3.6081002205833337,0.0549089115000001,3.2143999999999995
693,mp,mp-1184563.cif,Hf1 Be1 O3,HfBeO3,Pm-3m,3.438335,3.438335,3.438335,90.0,90.0,90.0,"(True, True, True)","[PeriodicSite: Hf (0.0, 0.0, 0.0) [0.0, 0.0, 0.0], PeriodicSite: Be (1.719, 1.719, 1.719) [0.5, 0.5, 0.5], PeriodicSite: O (1.719, 1.719, 0.0) [0.5, 0.5, 0.0], PeriodicSite: O (1.719, 0.0, 1.719) [0.5, 0.0, 0.5], PeriodicSite: O (0.0, 1.719, 1.719) [0.0, 0.5, 0.5]]",40.64850377274624,"[Element Hf, Element Be, Element O, Element O, Element O]",False,False,-2.88778275425,0.7660095674999994,1.0495
694,mp,mp-2914.cif,La1 Si3 Ir1,LaSi3Ir,I4mm,4.287820484586654,4.28782014828492,5.79409969246623,111.71661251386236,111.71660392023169,90.00000711189608,"(True, True, True)","[PeriodicSite: La (3.347, 3.93, 2.603) [0.9985, 0.9985, 0.9971], PeriodicSite: Si (2.871, 1.033, 1.41) [0.7621, 0.2621, 0.5243], PeriodicSite: Si (0.5627, 2.999, 1.41) [0.2621, 0.7621, 0.5243], PeriodicSite: Si (1.384, 1.626, 3.469) [0.4125, 0.4125, 0.8251], PeriodicSite: Ir (2.191, 2.573, -0.2931) [0.6541, 0.6541, 0.3082]]",90.77789751532553,"[Element La, Element Si, Element Si, Element Si, Element Ir]",True,False,-0.8610729349999999,0.0,0.0
695,mp,mp-973648.cif,Fe1 Rh1 O3,FeRhO3,Pm-3m,3.770073,3.770073,3.770073,90.0,90.0,90.0,"(True, True, True)","[PeriodicSite: Fe (0.0, 0.0, 0.0) [0.0, 0.0, 0.0], PeriodicSite: Rh (1.885, 1.885, 1.885) [0.5, 0.5, 0.5], PeriodicSite: O (0.0, 0.0, 1.885) [0.0, 0.0, 0.5], PeriodicSite: O (0.0, 1.885, 0.0) [0.0, 0.5, 0.0], PeriodicSite: O (1.885, 0.0, 0.0) [0.5, 0.0, 0.0]]",53.58574568537138,"[Element Fe, Element Rh, Element O, Element O, Element O]",False,True,-0.46771129125,0.9351273892500007,0.0
696,mp,mp-1215933.cif,Y1 Al3 Ag1,YAl3Ag,Imm2,4.203734,4.185893,6.392425420083444,70.88833288058059,70.80368732910918,90.0,"(True, True, True)","[PeriodicSite: Y (-2.093, -2.102, -5.661) [0.000139, 0.000139, 0.9997], PeriodicSite: Al (-4.186, -2.102, -2.833) [0.2499, 0.7499, 0.5003], PeriodicSite: Al (-4.186, -4.204, -4.421) [0.6097, 0.6097, 0.7807], PeriodicSite: Al (-2.093, -2.102, -1.244) [0.3901, 0.3901, 0.2197], PeriodicSite: Ag (-2.093, -4.204, -2.829) [0.7502, 0.2502, 0.4996]]",99.64094875548548,"[Element Y, Element Al, Element Al, Element Al, Element Ag]",False,False,-0.3552661406666665,0.00486114486666267,0.0
697,mp,mp-1069129.cif,Mn1 N1 Cl3,MnNCl3,Pm-3m,4.504298,4.504298,4.504298,90.0,90.0,90.0,"(True, True, True)","[PeriodicSite: Mn (2.252, 2.252, 2.252) [0.5, 0.5, 0.5], PeriodicSite: N (0.0, 0.0, 0.0) [0.0, 0.0, 0.0], PeriodicSite: Cl (2.252, 0.0, 2.252) [0.5, 0.0, 0.5], PeriodicSite: Cl (0.0, 2.252, 2.252) [0.0, 0.5, 0.5], PeriodicSite: Cl (2.252, 2.252, 0.0) [0.5, 0.5, 0.0]]",91.38635296225013,"[Element Mn, Element N, Element Cl, Element Cl, Element Cl]",False,True,0.0606199194137929,0.9576289970000005,0.0
698,mp,mp-975364.cif,Rb1 Cu1 O3,RbCuO3,Pm-3m,4.046069,4.046069,4.046069,90.0,90.0,90.0,"(True, True, True)","[PeriodicSite: Rb (0.0, 0.0, 0.0) [0.0, 0.0, 0.0], PeriodicSite: Cu (2.023, 2.023, 2.023) [0.5, 0.5, 0.5], PeriodicSite: O (2.023, 2.023, 0.0) [0.5, 0.5, 0.0], PeriodicSite: O (2.023, 0.0, 2.023) [0.5, 0.0, 0.5], PeriodicSite: O (0.0, 2.023, 2.023) [0.0, 0.5, 0.5]]",66.23687800780135,"[Element Rb, Element Cu, Element O, Element O, Element O]",False,True,-0.6599174227500001,0.426741508250001,0.0
699,mp,mp-1016931.cif,V1 Zn1 O3,VZnO3,Pm-3m,3.780363,3.780363,3.780363,90.0,90.0,90.0,"(True, True, True)","[PeriodicSite: V (1.89, 1.89, 1.89) [0.5, 0.5, 0.5], PeriodicSite: Zn (0.0, 0.0, 0.0) [0.0, 0.0, 0.0], PeriodicSite: O (1.89, 1.89, 0.0) [0.5, 0.5, 0.0], PeriodicSite: O (1.89, 0.0, 1.89) [0.5, 0.0, 0.5], PeriodicSite: O (0.0, 1.89, 1.89) [0.0, 0.5, 0.5]]",54.02571356190828,"[Element V, Element Zn, Element O, Element O, Element O]",False,True,-1.6811135472499998,0.5241748929999908,0.0
700,mp,mp-1183043.cif,Zr1 Si1 O3,ZrSiO3,Pm-3m,3.663473,3.663473,3.663473,90.0,90.0,90.0,"(True, True, True)","[PeriodicSite: Zr (0.0, 0.0, 0.0) [0.0, 0.0, 0.0], PeriodicSite: Si (1.832, 1.832, 1.832) [0.5, 0.5, 0.5], PeriodicSite: O (1.832, 1.832, 0.0) [0.5, 0.5, 0.0], PeriodicSite: O (1.832, 0.0, 1.832) [0.5, 0.0, 0.5], PeriodicSite: O (0.0, 1.832, 1.832) [0.0, 0.5, 0.5]]",49.16759723607481,"[Element Zr, Element Si, Element O, Element O, Element O]",False,True,-2.220752923249999,1.0728000422499946,0.0
701,mp,mp-1147577.cif,Gd1 Cr1 O3,GdCrO3,Pm-3m,3.871736,3.871736,3.871736,90.0,90.0,90.0,"(True, True, True)","[PeriodicSite: Gd (0.0, 0.0, 0.0) [0.0, 0.0, 0.0], PeriodicSite: Cr (1.936, 1.936, 1.936) [0.5, 0.5, 0.5], PeriodicSite: O (0.0, 1.936, 1.936) [0.0, 0.5, 0.5], PeriodicSite: O (1.936, 0.0, 1.936) [0.5, 0.0, 0.5], PeriodicSite: O (1.936, 1.936, 0.0) [0.5, 0.5, 0.0]]",58.03863768944233,"[Element Gd, Element Cr, Element O, Element O, Element O]",False,True,-2.9394058032499997,0.2346617325000011,0.8250000000000002
702,mp,mp-1184022.cif,Cs1 Sm1 O3,CsSmO3,Pm-3m,4.654806,4.654806,4.654806,90.0,90.0,90.0,"(True, True, True)","[PeriodicSite: Cs (0.0, 0.0, 0.0) [0.0, 0.0, 0.0], PeriodicSite: Sm (2.327, 2.327, 2.327) [0.5, 0.5, 0.5], PeriodicSite: O (2.327, 2.327, 0.0) [0.5, 0.5, 0.0], PeriodicSite: O (2.327, 0.0, 2.327) [0.5, 0.0, 0.5], PeriodicSite: O (0.0, 2.327, 2.327) [0.0, 0.5, 0.5]]",100.85670052802942,"[Element Cs, Element Sm, Element O, Element O, Element O]",False,True,-2.1896879758362067,0.28210805212499857,0.0
703,mp,mp-1183142.cif,Ac1 Mg1 O3,AcMgO3,Pm-3m,4.016262,4.016262,4.016262,90.0,90.0,90.0,"(True, True, True)","[PeriodicSite: Ac (0.0, 0.0, 0.0) [0.0, 0.0, 0.0], PeriodicSite: Mg (2.008, 2.008, 2.008) [0.5, 0.5, 0.5], PeriodicSite: O (2.008, 2.008, 0.0) [0.5, 0.5, 0.0], PeriodicSite: O (2.008, 0.0, 2.008) [0.5, 0.0, 0.5], PeriodicSite: O (0.0, 2.008, 2.008) [0.0, 0.5, 0.5]]",64.78375373225691,"[Element Ac, Element Mg, Element O, Element O, Element O]",False,True,-3.0086466957499995,0.08218525712500124,0.0
704,mp,mp-972978.cif,Sc1 V1 O3,ScVO3,Pm-3m,3.786401,3.786401,3.786401,90.0,90.0,90.0,"(True, True, True)","[PeriodicSite: Sc (0.0, 0.0, 0.0) [0.0, 0.0, 0.0], PeriodicSite: V (1.893, 1.893, 1.893) [0.5, 0.5, 0.5], PeriodicSite: O (1.893, 1.893, 0.0) [0.5, 0.5, 0.0], PeriodicSite: O (1.893, 0.0, 1.893) [0.5, 0.0, 0.5], PeriodicSite: O (0.0, 1.893, 1.893) [0.0, 0.5, 0.5]]",54.284997039030245,"[Element Sc, Element V, Element O, Element O, Element O]",False,True,-2.5266148542500004,0.7257886890000051,0.0
705,mp,mp-1183532.cif,Ca1 Mg1 O3,CaMgO3,Pm-3m,3.945178,3.945178,3.945178,90.0,90.0,90.0,"(True, True, True)","[PeriodicSite: Ca (0.0, 0.0, 0.0) [0.0, 0.0, 0.0], PeriodicSite: Mg (1.973, 1.973, 1.973) [0.5, 0.5, 0.5], PeriodicSite: O (1.973, 1.973, 0.0) [0.5, 0.5, 0.0], PeriodicSite: O (1.973, 0.0, 1.973) [0.5, 0.0, 0.5], PeriodicSite: O (0.0, 1.973, 1.973) [0.0, 0.5, 0.5]]",61.40444465533577,"[Element Ca, Element Mg, Element O, Element O, Element O]",False,True,-2.23539106125,0.3106700680000003,0.0
706,mp,mp-1013709.cif,Ba3 As1 N1,Ba3AsN,Pm-3m,6.186616,6.186616,6.186616,90.0,90.0,90.0,"(True, True, True)","[PeriodicSite: Ba (0.0, 3.093, 3.093) [0.0, 0.5, 0.5], PeriodicSite: Ba (3.093, 0.0, 3.093) [0.5, 0.0, 0.5], PeriodicSite: Ba (3.093, 3.093, 0.0) [0.5, 0.5, 0.0], PeriodicSite: As (3.093, 3.093, 3.093) [0.5, 0.5, 0.5], PeriodicSite: N (0.0, 0.0, 0.0) [0.0, 0.0, 0.0]]",236.78788656758616,"[Element Ba, Element Ba, Element Ba, Element As, Element N]",False,False,0.2907086719999995,1.1172157440512818,0.0
707,mp,mp-1218370.cif,Sr1 C1 O3,SrCO3,R32,4.388278395494183,4.388278395494183,4.388278805979516,72.2593960667674,72.2593960667674,72.2593919446326,"(True, True, True)","[PeriodicSite: Sr (4.372, 0.0, 2.032) [0.5, 0.5, 0.5], PeriodicSite: C (0.0, 0.0, 0.0) [0.0, 0.0, 0.0], PeriodicSite: O (3.544, -1.284, 0.0) [0.7482, 0.2518, 0.0], PeriodicSite: O (3.069, 1.936, 1.023) [0.0, 0.7482, 0.2518], PeriodicSite: O (2.131, -0.6515, 3.041) [0.2518, 0.0, 0.7482]]",74.53905776639496,"[Element Sr, Element C, Element O, Element O, Element O]",False,False,-2.6690710340833332,0.03170497750000045,4.5332
708,mp,mp-1183285.cif,Ba1 Ca1 O3,BaCaO3,Pm-3m,4.464426,4.464426,4.464426,90.0,90.0,90.0,"(True, True, True)","[PeriodicSite: Ba (0.0, 0.0, 0.0) [0.0, 0.0, 0.0], PeriodicSite: Ca (2.232, 2.232, 2.232) [0.5, 0.5, 0.5], PeriodicSite: O (2.232, 2.232, 0.0) [0.5, 0.5, 0.0], PeriodicSite: O (2.232, 0.0, 2.232) [0.5, 0.0, 0.5], PeriodicSite: O (0.0, 2.232, 2.232) [0.0, 0.5, 0.5]]",88.98091885869187,"[Element Ba, Element Ca, Element O, Element O, Element O]",False,True,-2.28075567725,0.34453105400000084,0.0
709,mp,mp-1068775.cif,Nd1 Si3 Os1,NdSi3Os,I4mm,5.805284466107143,5.805284466107143,5.805284466107143,137.13396094842403,137.13396094842403,62.232001060944334,"(True, True, True)","[PeriodicSite: Nd (0.0, 0.0, 9.922) [0.9981, 0.9981, -0.0], PeriodicSite: Si (0.0, 0.0, 4.171) [0.4196, 0.4196, 0.0], PeriodicSite: Si (2.121, -2.22e-16, 2.591) [0.2607, 0.7607, 0.5], PeriodicSite: Si (-2.22e-16, 2.121, 2.591) [0.7607, 0.2607, 0.5], PeriodicSite: Os (0.0, 0.0, 6.51) [0.6549, 0.6549, 0.0]]",89.46130959284294,"[Element Nd, Element Si, Element Si, Element Si, Element Os]",True,False,-0.5805630254999997,0.0,0.0