,provider,id,Full_Formula,formula,space_group,a_lattice_param,b_lattice_param,c_lattice_param,aplha_degree,beta_degree,gamma_degree,pbc,sits,volume,species_at_sites,is_stable,is_magnetic,formation_energy,energy_above_hull,band_gap
1261,mp,mp-20031.cif,Nd1 Co1 O3,NdCoO3,Pm-3m,3.801945,3.801945,3.801945,90.0,90.0,90.0,"(True, True, True)","[PeriodicSite: Nd (0.0, 0.0, 0.0) [0.0, 0.0, 0.0], PeriodicSite: Co (1.901, 1.901, 1.901) [0.5, 0.5, 0.5], PeriodicSite: O (0.0, 1.901, 1.901) [0.0, 0.5, 0.5], PeriodicSite: O (1.901, 0.0, 1.901) [0.5, 0.0, 0.5], PeriodicSite: O (1.901, 1.901, 0.0) [0.5, 0.5, 0.0]]",54.95630053384298,"[Element Nd, Element Co, Element O, Element O, Element O]",False,False,-2.4485937897499994,0.07815874400000133,0.7914000000000003
1262,mp,mp-571443.cif,Sr1 Mg1 In3,SrMgIn3,I-4m2,4.706405955141015,4.706406209355401,7.1363250727197,109.25361563513376,109.25360317337166,89.99999377027738,"(True, True, True)","[PeriodicSite: Sr (0.0, 0.0, 0.0) [0.0, 0.0, 0.0], PeriodicSite: Mg (0.7035, 3.305, 2.021) [0.25, 0.75, 0.5], PeriodicSite: In (1.513, 1.709, 4.347) [0.3889, 0.3889, 0.7778], PeriodicSite: In (2.385, 2.694, -0.3052) [0.6111, 0.6111, 0.2222], PeriodicSite: In (3.195, 1.099, 2.021) [0.75, 0.25, 0.5]]",139.8311227013373,"[Element Sr, Element Mg, Element In, Element In, Element In]",True,False,-0.3033054713333335,0.0,0.0
1263,mp,mp-998761.cif,Tl1 Ni1 F3,TlNiF3,Pm-3m,4.08734836,4.08734836,4.08737585,90.0,90.0,90.0,"(True, True, True)","[PeriodicSite: Tl (2.044, 2.044, 2.044) [0.5, 0.5, 0.5], PeriodicSite: Ni (0.0, 0.0, 0.0) [0.0, 0.0, 0.0], PeriodicSite: F (2.044, 0.0, 0.0) [0.5, -0.0, 0.0], PeriodicSite: F (0.0, 2.044, 0.0) [-0.0, 0.5, 0.0], PeriodicSite: F (0.0, 0.0, 2.044) [0.0, -0.0, 0.5]]",68.28540381625542,"[Element Tl, Element Ni, Element F, Element F, Element F]",False,True,-2.182433398166667,0.010862042000000294,3.4347
1264,mp,mp-20423.cif,Nd3 Sn1 C1,Nd3SnC,Pm-3m,5.819249,5.819249,5.819249,90.0,90.0,90.0,"(True, True, True)","[PeriodicSite: Nd (0.0, 2.91, 2.91) [0.0, 0.5, 0.5], PeriodicSite: Nd (2.91, 0.0, 2.91) [0.5, 0.0, 0.5], PeriodicSite: Nd (2.91, 2.91, 0.0) [0.5, 0.5, 0.0], PeriodicSite: Sn (2.91, 2.91, 2.91) [0.5, 0.5, 0.5], PeriodicSite: C (0.0, 0.0, 0.0) [0.0, 0.0, 0.0]]",197.0610633298339,"[Element Nd, Element Nd, Element Nd, Element Sn, Element C]",False,False,1.4177270049999997,1.840612416,0.0
1265,mp,mp-1219979.cif,Pr1 Ga3 Au1,PrGa3Au,I4mm,4.325099193789493,4.325097713742778,6.184387706428363,69.59754446074223,69.59753926629853,90.10098336466592,"(True, True, True)","[PeriodicSite: Pr (4.321, 4.321, 0.1444) [0.9862, 0.9862, 0.02724], PeriodicSite: Ga (4.324, 2.157, 2.689) [0.7502, 0.2496, 0.5002], PeriodicSite: Ga (2.157, 4.324, 2.689) [0.2496, 0.7502, 0.5002], PeriodicSite: Ga (2.162, 2.162, 1.172) [0.3914, 0.3914, 0.2182], PeriodicSite: Au (4.319, 4.319, 4.055) [0.6226, 0.6226, 0.7542]]",100.62255001538249,"[Element Pr, Element Ga, Element Ga, Element Ga, Element Au]",True,False,-0.6108245615000001,0.0,0.0
1266,mp,mp-977100.cif,Ni1 Mo1 O3,NiMoO3,Pm-3m,3.927638,3.927638,3.927638,90.0,90.0,90.0,"(True, True, True)","[PeriodicSite: Ni (1.964, 1.964, 1.964) [0.5, 0.5, 0.5], PeriodicSite: Mo (0.0, 0.0, 0.0) [0.0, 0.0, 0.0], PeriodicSite: O (0.0, 0.0, 1.964) [0.0, 0.0, 0.5], PeriodicSite: O (0.0, 1.964, 0.0) [0.0, 0.5, 0.0], PeriodicSite: O (1.964, 0.0, 0.0) [0.5, 0.0, 0.0]]",60.589080202351056,"[Element Ni, Element Mo, Element O, Element O, Element O]",False,True,-0.7646379892500008,0.9362926199999997,0.0
1267,mp,mp-1212650.cif,Fe3 Co1 N1,Fe3CoN,Pm-3m,3.675335,3.675335,3.675335,90.0,90.0,90.0,"(True, True, True)","[PeriodicSite: Fe (1.838, 0.0, 0.0) [0.5, 0.0, 0.0], PeriodicSite: Fe (0.0, 1.838, 0.0) [0.0, 0.5, 0.0], PeriodicSite: Fe (0.0, 0.0, 1.838) [0.0, 0.0, 0.5], PeriodicSite: Co (1.838, 1.838, 1.838) [0.5, 0.5, 0.5], PeriodicSite: N (0.0, 0.0, 0.0) [0.0, 0.0, 0.0]]",49.64674626544322,"[Element Fe, Element Fe, Element Fe, Element Co, Element N]",False,True,-0.05978038599999991,0.10010818750000006,0.0
1268,mp,mp-5323.cif,Ce1 Al1 O3,CeAlO3,Pm-3m,3.76203913,3.76203913,3.76201474,90.0,90.0,90.0,"(True, True, True)","[PeriodicSite: Ce (1.881, 1.881, 1.881) [0.5, 0.5, 0.5], PeriodicSite: Al (0.0, 0.0, 0.0) [0.0, 0.0, 0.0], PeriodicSite: O (0.0, 1.881, 0.0) [-0.0, 0.5, -0.0], PeriodicSite: O (0.0, 0.0, 1.881) [-0.0, 0.0, 0.5], PeriodicSite: O (1.881, 0.0, 0.0) [0.5, -0.0, -0.0]]",53.243562933991896,"[Element Ce, Element Al, Element O, Element O, Element O]",False,True,-3.6047590182499993,0.017115028999999282,0.0
1269,mp,mp-555123.cif,K1 Mn1 F3,KMnF3,Pm-3m,4.182679,4.182679,4.182679,90.0,90.0,90.0,"(True, True, True)","[PeriodicSite: K (2.091, 2.091, 2.091) [0.5, 0.5, 0.5], PeriodicSite: Mn (0.0, 0.0, 0.0) [0.0, 0.0, 0.0], PeriodicSite: F (2.091, 0.0, 0.0) [0.5, 0.0, 0.0], PeriodicSite: F (0.0, 0.0, 2.091) [0.0, 0.0, 0.5], PeriodicSite: F (0.0, 2.091, 0.0) [0.0, 0.5, 0.0]]",73.17514769812144,"[Element K, Element Mn, Element F, Element F, Element F]",False,True,-3.0191048296862064,0.002243526499999149,2.6564
1270,mp,mp-2929.cif,Ba1 Tb1 O3,BaTbO3,Pm-3m,4.451637,4.451637,4.451637,90.0,90.0,90.0,"(True, True, True)","[PeriodicSite: Ba (2.226, 2.226, 2.226) [0.5, 0.5, 0.5], PeriodicSite: Tb (0.0, 0.0, 0.0) [0.0, 0.0, 0.0], PeriodicSite: O (0.0, 0.0, 2.226) [0.0, 0.0, 0.5], PeriodicSite: O (2.226, 0.0, 0.0) [0.5, 0.0, 0.0], PeriodicSite: O (0.0, 2.226, 0.0) [0.0, 0.5, 0.0]]",88.21841085680292,"[Element Ba, Element Tb, Element O, Element O, Element O]",False,True,-3.0961442972499995,0.12044266375000845,0.0
1271,mp,mp-580539.cif,Gd3 Al1 C1,Gd3AlC,Pm-3m,4.94053157,4.93884406,4.94179571,90.0,90.0,90.0,"(True, True, True)","[PeriodicSite: Gd (2.47, 2.469, 0.0) [0.5, 0.5, -0.0], PeriodicSite: Gd (2.47, 0.0, 2.471) [0.5, -0.0, 0.5], PeriodicSite: Gd (0.0, 2.469, 2.471) [-0.0, 0.5, 0.5], PeriodicSite: Al (0.0, 0.0, 0.0) [-0.0, -0.0, -0.0], PeriodicSite: C (2.47, 2.469, 2.471) [0.5, 0.5, 0.5]]",120.58236033760726,"[Element Gd, Element Gd, Element Gd, Element Al, Element C]",True,True,-0.34094332550000106,0.0,0.0
1272,mp,mp-31058.cif,Er3 In1 N1,Er3InN,Pm-3m,4.73048637,4.73048637,4.73048637,90.0,90.0,90.0,"(True, True, True)","[PeriodicSite: Er (2.365, 2.365, 0.0) [0.5, 0.5, -0.0], PeriodicSite: Er (0.0, 2.365, 2.365) [0.0, 0.5, 0.5], PeriodicSite: Er (2.365, 0.0, 2.365) [0.5, -0.0, 0.5], PeriodicSite: In (0.0, 0.0, 0.0) [-0.0, -0.0, -0.0], PeriodicSite: N (2.365, 2.365, 2.365) [0.5, 0.5, 0.5]]",105.85646487896055,"[Element Er, Element Er, Element Er, Element In, Element N]",True,False,-1.0847373150000004,0.0,0.0
1273,mp,mp-5811.cif,Cs1 Pb1 F3,CsPbF3,Pm-3m,4.83141123,4.83141123,4.83141123,90.0,90.0,90.0,"(True, True, True)","[PeriodicSite: Cs (2.416, 2.416, 2.416) [0.5, 0.5, 0.5], PeriodicSite: Pb (0.0, 0.0, 0.0) [0.0, -0.0, 0.0], PeriodicSite: F (0.0, 2.416, 0.0) [-0.0, 0.5, -0.0], PeriodicSite: F (0.0, 0.0, 2.416) [-0.0, 0.0, 0.5], PeriodicSite: F (2.416, 0.0, 0.0) [0.5, -0.0, -0.0]]",112.77738319130246,"[Element Cs, Element Pb, Element F, Element F, Element F]",False,False,-2.781120545086207,0.004437171000001072,2.9083000000000006
1274,mp,mp-1225249.cif,Eu1 Al3 Si1,EuAl3Si,I4mm,6.239298854844108,6.239298854844108,6.239298854844108,139.24424590935337,139.24424590935337,59.002621838477076,"(True, True, True)","[PeriodicSite: Eu (0.0, 0.0, 10.85) [0.9986, 0.9986, 0.0], PeriodicSite: Al (0.0, 2.173, 2.732) [0.7516, 0.2516, 0.5], PeriodicSite: Al (2.173, 0.0, 2.732) [0.2516, 0.7516, 0.5], PeriodicSite: Al (0.0, 0.0, 6.681) [0.6152, 0.6152, 0.0], PeriodicSite: Si (0.0, 0.0, 4.161) [0.3831, 0.3831, 0.0]]",102.52771690227227,"[Element Eu, Element Al, Element Al, Element Al, Element Si]",False,True,-0.27843076000000055,0.028563792999998228,0.0
1275,mp,mp-8020.cif,La1 Ti1 O3,LaTiO3,Pm-3m,3.958938,3.958938,3.958938,90.0,90.0,90.0,"(True, True, True)","[PeriodicSite: La (0.0, 0.0, 0.0) [0.0, 0.0, 0.0], PeriodicSite: Ti (1.979, 1.979, 1.979) [0.5, 0.5, 0.5], PeriodicSite: O (0.0, 1.979, 1.979) [0.0, 0.5, 0.5], PeriodicSite: O (1.979, 0.0, 1.979) [0.5, 0.0, 0.5], PeriodicSite: O (1.979, 1.979, 0.0) [0.5, 0.5, 0.0]]",62.049187819988944,"[Element La, Element Ti, Element O, Element O, Element O]",False,False,-3.598313908916667,0.06758425174999694,0.0
1276,mp,mp-654759.cif,Fe1 Bi1 O3,FeBiO3,R3,5.136741822521354,5.136741391616576,5.136741334652738,72.09140823106492,72.09139948535655,72.09140023499245,"(True, True, True)","[PeriodicSite: Fe (1.441, 1.022, 2.478) [0.2692, 0.2692, 0.2692], PeriodicSite: Bi (0.06562, 0.04653, 0.1128) [0.01226, 0.01226, 0.01226], PeriodicSite: O (0.01735, 0.9039, 3.471) [0.006551, 0.2472, 0.5788], PeriodicSite: O (2.592, -0.2827, 2.463) [0.5788, 0.006551, 0.2472], PeriodicSite: O (1.848, 2.539, 1.732) [0.2472, 0.5788, 0.006551]]",119.2804837913782,"[Element Fe, Element Bi, Element O, Element O, Element O]",False,True,-1.0964600552500001,0.5886216409999996,1.1601
1277,mp,mp-545522.cif,Co1 Bi1 O3,CoBiO3,P4mm,3.72444997,3.72443794,4.02083227,90.0,90.0,90.0,"(True, True, True)","[PeriodicSite: Co (1.862, 1.862, 2.504) [0.5, 0.5, 0.6228], PeriodicSite: Bi (0.0, 0.0, 0.2049) [-0.0, -0.0, 0.05096], PeriodicSite: O (1.862, 0.0, 2.799) [0.5, -0.0, 0.6961], PeriodicSite: O (1.862, 1.862, 0.6537) [0.5, 0.5, 0.1626], PeriodicSite: O (0.0, 1.862, 2.799) [0.0, 0.5, 0.6961]]",55.77490557004568,"[Element Co, Element Bi, Element O, Element O, Element O]",True,False,-1.4746049102499996,0.0,0.0
1278,mp,mp-981367.cif,Sr1 Tl1 O3,SrTlO3,Pm-3m,4.279558,4.279558,4.279558,90.0,90.0,90.0,"(True, True, True)","[PeriodicSite: Sr (0.0, 0.0, 0.0) [0.0, 0.0, 0.0], PeriodicSite: Tl (2.14, 2.14, 2.14) [0.5, 0.5, 0.5], PeriodicSite: O (2.14, 2.14, 0.0) [0.5, 0.5, 0.0], PeriodicSite: O (2.14, 0.0, 2.14) [0.5, 0.0, 0.5], PeriodicSite: O (0.0, 2.14, 2.14) [0.0, 0.5, 0.5]]",78.3784643099874,"[Element Sr, Element Tl, Element O, Element O, Element O]",False,False,-1.6273862432499997,0.24066696549999467,0.0
1279,mp,mp-20182.cif,Gd1 Rh3 C1,GdRh3C,Pm-3m,4.16968333,4.16967923,4.16969563,90.0,90.0,90.0,"(True, True, True)","[PeriodicSite: Gd (0.0, 0.0, 0.0) [-0.0, -0.0, -0.0], PeriodicSite: Rh (0.0, 2.085, 2.085) [-0.0, 0.5, 0.5], PeriodicSite: Rh (2.085, 2.085, 0.0) [0.5, 0.5, -0.0], PeriodicSite: Rh (2.085, 0.0, 2.085) [0.5, 0.0, 0.5], PeriodicSite: C (2.085, 2.085, 2.085) [0.5, 0.5, 0.5]]",72.49533719269476,"[Element Gd, Element Rh, Element Rh, Element Rh, Element C]",True,True,-0.4611472274999997,0.0,0.0
1280,mp,mp-22549.cif,Sm1 Co1 O3,SmCoO3,Pm-3m,3.756973,3.756973,3.756973,90.0,90.0,90.0,"(True, True, True)","[PeriodicSite: Sm (1.878, 1.878, 1.878) [0.5, 0.5, 0.5], PeriodicSite: Co (0.0, 0.0, 0.0) [0.0, 0.0, 0.0], PeriodicSite: O (1.878, 0.0, 0.0) [0.5, 0.0, 0.0], PeriodicSite: O (0.0, 1.878, 0.0) [0.0, 0.5, 0.0], PeriodicSite: O (0.0, 0.0, 1.878) [0.0, 0.0, 0.5]]",53.02909578224753,"[Element Sm, Element Co, Element O, Element O, Element O]",False,False,-2.442726505249999,0.13055311100000022,0.8039000000000005
1281,mp,mp-632480.cif,Ag3 S1 I1,Ag3SI,P1,4.892054,4.925177546739711,5.12078399032072,89.94357745285878,89.40346587893922,88.7191897792322,"(True, True, True)","[PeriodicSite: Ag (4.884, 4.551, 0.3569) [0.9768, 0.9243, 0.06969], PeriodicSite: Ag (4.816, 2.105, 3.703) [0.9669, 0.427, 0.7232], PeriodicSite: Ag (2.755, 3.954, 2.528) [0.5397, 0.8026, 0.4938], PeriodicSite: S (0.2993, 4.561, 2.904) [0.03417, 0.9258, 0.5671], PeriodicSite: I (2.407, 1.903, 0.4007) [0.4824, 0.3863, 0.07826]]",123.3438233881282,"[Element Ag, Element Ag, Element Ag, Element S, Element I]",False,False,-0.2701496566250004,0.06471654900000035,0.2474000000000003
1282,mp,mp-998195.cif,Rb1 In1 Cl3,RbInCl3,P1,5.451542177320836,5.452959755742289,5.453123336776273,90.29383279145529,90.13918602006193,90.03015875359144,"(True, True, True)","[PeriodicSite: Rb (0.009217, 0.01562, 0.01453) [0.001692, 0.002864, 0.002684], PeriodicSite: In (2.728, 2.805, 2.723) [0.5006, 0.5142, 0.5035], PeriodicSite: Cl (-0.0007133, 2.814, 2.739) [9.3e-05, 0.5159, 0.5052], PeriodicSite: Cl (2.703, 0.07936, 2.697) [0.4958, 0.01438, 0.4959], PeriodicSite: Cl (2.734, 2.795, -0.007353) [0.5019, 0.5126, 0.002738]]",162.10258258411477,"[Element Rb, Element In, Element Cl, Element Cl, Element Cl]",False,False,-1.7340569614999992,0.03647336899999987,0.0
1283,mp,mp-1223513.cif,K1 Cu1 S3,KCuS3,Pmm2,4.1767,3.438944,7.610688,90.0,90.0,90.0,"(True, True, True)","[PeriodicSite: K (0.0, 0.0, 3.904) [0.0, 0.0, 0.513], PeriodicSite: Cu (2.088, 0.0, 6.878) [0.5, 0.0, 0.9037], PeriodicSite: S (2.088, 1.719, 5.381) [0.5, 0.5, 0.707], PeriodicSite: S (2.088, 1.719, 0.9164) [0.5, 0.5, 0.1204], PeriodicSite: S (0.0, 0.0, 0.7446) [0.0, 0.0, 0.09784]]",109.3156406954625,"[Element K, Element Cu, Element S, Element S, Element S]",False,False,-0.448085168475,0.34333780272221803,0.0
1284,mp,mp-21319.cif,Ce3 Tl1 C1,Ce3TlC,Pm-3m,5.862354,5.862354,5.862354,90.0,90.0,90.0,"(True, True, True)","[PeriodicSite: Ce (0.0, 2.931, 2.931) [0.0, 0.5, 0.5], PeriodicSite: Ce (2.931, 2.931, 0.0) [0.5, 0.5, 0.0], PeriodicSite: Ce (2.931, 0.0, 2.931) [0.5, 0.0, 0.5], PeriodicSite: Tl (2.931, 2.931, 2.931) [0.5, 0.5, 0.5], PeriodicSite: C (0.0, 0.0, 0.0) [0.0, 0.0, 0.0]]",201.47265968457953,"[Element Ce, Element Ce, Element Ce, Element Tl, Element C]",False,True,1.812704288833333,2.0040080433333323,0.0
1285,mp,mp-4079.cif,Sc3 Al1 C1,Sc3AlC,Pm-3m,4.5094935,4.5094935,4.5094935,90.0,90.0,90.0,"(True, True, True)","[PeriodicSite: Sc (0.0, 2.255, 2.255) [0.0, 0.5, 0.5], PeriodicSite: Sc (2.255, 2.255, 0.0) [0.5, 0.5, 0.0], PeriodicSite: Sc (2.255, 0.0, 2.255) [0.5, 0.0, 0.5], PeriodicSite: Al (0.0, 0.0, 0.0) [-0.0, 0.0, 0.0], PeriodicSite: C (2.255, 2.255, 2.255) [0.5, 0.5, 0.5]]",91.70294768893667,"[Element Sc, Element Sc, Element Sc, Element Al, Element C]",True,False,-0.5942279285000005,0.0,0.0
1286,mp,mp-1225144.cif,Eu1 Cu1 Si3,EuCuSi3,I-4m2,5.5966725162249755,5.5966725162249755,5.5966725162249755,134.687957729997,134.687957729997,66.01543124343566,"(True, True, True)","[PeriodicSite: Eu (0.0, 0.0, 0.0) [0.0, 0.0, 0.0], PeriodicSite: Cu (2.156, -2.22e-16, 2.347) [0.25, 0.75, 0.5], PeriodicSite: Si (0.0, 0.0, 5.882) [0.6266, 0.6266, 0.0], PeriodicSite: Si (0.0, 0.0, 3.505) [0.3734, 0.3734, 0.0], PeriodicSite: Si (-2.22e-16, 2.156, 2.347) [0.75, 0.25, 0.5]]",87.25106053541612,"[Element Eu, Element Cu, Element Si, Element Si, Element Si]",False,True,-0.22578140399999996,0.1338176330000005,0.0
1287,mp,mp-558749.cif,Rb1 Mn1 F3,RbMnF3,Pm-3m,4.23247214,4.23247214,4.23247214,90.0,90.0,90.0,"(True, True, True)","[PeriodicSite: Rb (0.0, 0.0, 0.0) [0.0, 0.0, 0.0], PeriodicSite: Mn (2.116, 2.116, 2.116) [0.5, 0.5, 0.5], PeriodicSite: F (2.116, 0.0, 2.116) [0.5, -0.0, 0.5], PeriodicSite: F (2.116, 2.116, 0.0) [0.5, 0.5, 0.0], PeriodicSite: F (0.0, 2.116, 2.116) [0.0, 0.5, 0.5]]",75.81974583115912,"[Element Rb, Element Mn, Element F, Element F, Element F]",True,True,-3.0149069225862064,0.0,2.9436999999999998
1288,mp,mp-976952.cif,Na1 Pu1 O3,NaPuO3,Pm-3m,4.20646926,4.2064804,4.20650717,90.0,90.0,90.0,"(True, True, True)","[PeriodicSite: Na (0.0, 0.0, 0.0) [0.0, -0.0, -0.0], PeriodicSite: Pu (2.103, 2.103, 2.103) [0.5, 0.5, 0.5], PeriodicSite: O (2.103, 2.103, 0.0) [0.5, 0.5, -0.0], PeriodicSite: O (2.103, 0.0, 2.103) [0.5, -0.0, 0.5], PeriodicSite: O (0.0, 2.103, 2.103) [0.0, 0.5, 0.5]]",74.43174874793523,"[Element Na, Element Pu, Element O, Element O, Element O]",True,True,-2.927076472560344,0.0,0.0
1289,mp,mp-866036.cif,Eu1 Ru1 O3,EuRuO3,Pm-3m,3.9836350112516583,3.9850970061886826,3.9853130051856653,89.99935286883775,90.00580944159407,90.00635604240266,"(True, True, True)","[PeriodicSite: Eu (-0.0001542, 2.698e-05, 3.985) [1.2e-05, 1e-06, 1.0], PeriodicSite: Ru (1.992, 1.992, 1.993) [0.5, 0.5, 0.5], PeriodicSite: O (1.992, 1.992, -9e-05) [0.5, 0.5, 0.0], PeriodicSite: O (1.991, 3.985, 1.993) [0.5, 1.0, 0.5], PeriodicSite: O (-0.0002075, 1.993, 1.993) [1e-06, 0.5, 0.5]]",63.26752854159861,"[Element Eu, Element Ru, Element O, Element O, Element O]",False,True,-2.1673122792499995,0.1372101715937415,0.0
1290,mp,mp-545379.cif,In1 Bi1 O3,InBiO3,Pm-3m,4.172779,4.172779,4.172779,90.0,90.0,90.0,"(True, True, True)","[PeriodicSite: In (0.0, 0.0, 0.0) [0.0, 0.0, 0.0], PeriodicSite: Bi (2.086, 2.086, 2.086) [0.5, 0.5, 0.5], PeriodicSite: O (2.086, 0.0, 0.0) [0.5, 0.0, 0.0], PeriodicSite: O (0.0, 0.0, 2.086) [0.0, 0.0, 0.5], PeriodicSite: O (0.0, 2.086, 0.0) [0.0, 0.5, 0.0]]",72.65678089350268,"[Element In, Element Bi, Element O, Element O, Element O]",False,False,-1.3340416532500008,0.4960260629999995,0.04519999999999946
1291,mp,mp-22535.cif,Hf1 Pb1 O3,HfPbO3,Pm-3m,4.155481,4.155481,4.155481,90.0,90.0,90.0,"(True, True, True)","[PeriodicSite: Hf (2.078, 2.078, 2.078) [0.5, 0.5, 0.5], PeriodicSite: Pb (0.0, 0.0, 0.0) [0.0, 0.0, 0.0], PeriodicSite: O (0.0, 2.078, 2.078) [0.0, 0.5, 0.5], PeriodicSite: O (2.078, 0.0, 2.078) [0.5, 0.0, 0.5], PeriodicSite: O (2.078, 2.078, 0.0) [0.5, 0.5, 0.0]]",71.75693874710115,"[Element Hf, Element Pb, Element O, Element O, Element O]",False,False,-2.9600021932499994,0.04027840031249674,2.4148999999999994
1292,mp,mp-20040.cif,Eu1 B1 Pd3,EuBPd3,Pm-3m,4.34027797,4.34027385,4.34027282,90.0,90.0,90.0,"(True, True, True)","[PeriodicSite: Eu (0.0, 0.0, 0.0) [-0.0, -0.0, 0.0], PeriodicSite: B (2.17, 2.17, 2.17) [0.5, 0.5, 0.5], PeriodicSite: Pd (0.0, 2.17, 2.17) [0.0, 0.5, 0.5], PeriodicSite: Pd (2.17, 2.17, 0.0) [0.5, 0.5, 0.0], PeriodicSite: Pd (2.17, 0.0, 2.17) [0.5, 0.0, 0.5]]",81.7620375729509,"[Element Eu, Element B, Element Pd, Element Pd, Element Pd]",False,True,-0.5080961778333333,0.0643879552857145,0.0
1293,mp,mp-976133.cif,Na1 As1 O3,NaAsO3,Pm-3m,3.719232,3.719232,3.719232,90.0,90.0,90.0,"(True, True, True)","[PeriodicSite: Na (0.0, 0.0, 0.0) [0.0, 0.0, 0.0], PeriodicSite: As (1.86, 1.86, 1.86) [0.5, 0.5, 0.5], PeriodicSite: O (1.86, 1.86, 0.0) [0.5, 0.5, 0.0], PeriodicSite: O (1.86, 0.0, 1.86) [0.5, 0.0, 0.5], PeriodicSite: O (0.0, 1.86, 1.86) [0.0, 0.5, 0.5]]",51.44697090838285,"[Element Na, Element As, Element O, Element O, Element O]",False,False,-1.5872780555603447,0.30443091166666747,0.0
1294,mp,mp-550008.cif,Sc1 Bi1 O3,ScBiO3,Pm-3m,4.075793,4.075793,4.075793,90.0,90.0,90.0,"(True, True, True)","[PeriodicSite: Sc (0.0, 0.0, 0.0) [0.0, 0.0, 0.0], PeriodicSite: Bi (2.038, 2.038, 2.038) [0.5, 0.5, 0.5], PeriodicSite: O (2.038, 0.0, 0.0) [0.5, 0.0, 0.0], PeriodicSite: O (0.0, 0.0, 2.038) [0.0, 0.0, 0.5], PeriodicSite: O (0.0, 2.038, 0.0) [0.0, 0.5, 0.0]]",67.7074343450527,"[Element Sc, Element Bi, Element O, Element O, Element O]",False,False,-2.458886294250001,0.3570160458749996,0.6896999999999993
1295,mp,mp-2695837.cif,Cs1 Tl1 F3,CsTlF3,R3m,4.78968855745591,4.78968855745591,4.789688248629536,90.00414871209999,90.00414871209999,90.00414620259183,"(True, True, True)","[PeriodicSite: Cs (0.3197, 0.0, 0.2265) [0.04723, 0.04723, 0.04723], PeriodicSite: Tl (3.702, 0.0, 2.623) [0.5469, 0.5469, 0.5469], PeriodicSite: F (2.007, 1.692, 2.619) [0.04688, 0.5465, 0.5465], PeriodicSite: F (3.701, 0.0, 0.228) [0.5465, 0.5465, 0.04688], PeriodicSite: F (2.007, -1.692, 2.619) [0.5465, 0.04688, 0.5465]]",109.88079513850573,"[Element Cs, Element Tl, Element F, Element F, Element F]",False,False,-2.453516131752873,0.0633824039999995,0.0
1296,mp,mp-975292.cif,Rb1 Mo1 O3,RbMoO3,Pm-3m,4.052919,4.052919,4.052919,90.0,90.0,90.0,"(True, True, True)","[PeriodicSite: Rb (2.026, 2.026, 2.026) [0.5, 0.5, 0.5], PeriodicSite: Mo (0.0, 0.0, 0.0) [0.0, 0.0, 0.0], PeriodicSite: O (2.026, 0.0, 0.0) [0.5, 0.0, 0.0], PeriodicSite: O (0.0, 2.026, 0.0) [0.0, 0.5, 0.0], PeriodicSite: O (0.0, 0.0, 2.026) [0.0, 0.0, 0.5]]",66.57386524218768,"[Element Rb, Element Mo, Element O, Element O, Element O]",False,True,-1.9536602527499993,0.19331893500000064,0.0