,provider,id,Full_Formula,formula,space_group,a_lattice_param,b_lattice_param,c_lattice_param,aplha_degree,beta_degree,gamma_degree,pbc,sits,volume,species_at_sites,is_stable,is_magnetic,formation_energy,energy_above_hull,band_gap
411,mp,mp-1187220.cif,Ta1 Fe1 O3,TaFeO3,Pm-3m,3.979417,3.979417,3.979417,90.0,90.0,90.0,"(True, True, True)","[PeriodicSite: Ta (1.99, 1.99, 1.99) [0.5, 0.5, 0.5], PeriodicSite: Fe (0.0, 0.0, 0.0) [0.0, 0.0, 0.0], PeriodicSite: O (1.99, 1.99, 0.0) [0.5, 0.5, 0.0], PeriodicSite: O (1.99, 0.0, 1.99) [0.5, 0.0, 0.5], PeriodicSite: O (0.0, 1.99, 1.99) [0.0, 0.5, 0.5]]",63.017091198476514,"[Element Ta, Element Fe, Element O, Element O, Element O]",False,True,-2.14315000925,0.5382121325000142,0.0
412,mp,mp-1094130.cif,Li1 N1 O3,LiNO3,R-3m,4.114484898475628,4.114484898475628,4.114484876455011,60.13123032190905,60.13123032190905,60.13123889560518,"(True, True, True)","[PeriodicSite: Li (0.0, 0.0, 0.0) [0.0, 0.0, 0.0], PeriodicSite: N (4.745, 0.0, 1.683) [0.5, 0.5, 0.5], PeriodicSite: O (1.184, 0.0, 1.683) [0.0, 0.0, 0.5], PeriodicSite: O (1.78, -1.031, 0.0) [0.5, 0.0, 0.0], PeriodicSite: O (1.78, 1.031, 0.0) [0.0, 0.5, 0.0]]",49.39928035651954,"[Element Li, Element N, Element O, Element O, Element O]",False,True,0.7727672670833335,2.160649706,0.0
413,mp,mp-1017000.cif,Mg1 Zr1 O3,MgZrO3,Pm-3m,4.133326,4.133326,4.133326,90.0,90.0,90.0,"(True, True, True)","[PeriodicSite: Mg (0.0, 0.0, 0.0) [0.0, 0.0, 0.0], PeriodicSite: Zr (2.067, 2.067, 2.067) [0.5, 0.5, 0.5], PeriodicSite: O (2.067, 2.067, 0.0) [0.5, 0.5, 0.0], PeriodicSite: O (2.067, 0.0, 2.067) [0.5, 0.0, 0.5], PeriodicSite: O (0.0, 2.067, 2.067) [0.0, 0.5, 0.5]]",70.61532784659279,"[Element Mg, Element Zr, Element O, Element O, Element O]",False,False,-2.8427337352499995,0.6675619550000018,2.0552
414,mp,mp-1013711.cif,Ba3 As1 P1,Ba3AsP,Pm-3m,6.166984,6.166984,6.166984,90.0,90.0,90.0,"(True, True, True)","[PeriodicSite: Ba (0.0, 3.083, 3.083) [0.0, 0.5, 0.5], PeriodicSite: Ba (3.083, 0.0, 3.083) [0.5, 0.0, 0.5], PeriodicSite: Ba (3.083, 3.083, 0.0) [0.5, 0.5, 0.0], PeriodicSite: As (3.083, 3.083, 3.083) [0.5, 0.5, 0.5], PeriodicSite: P (0.0, 0.0, 0.0) [0.0, 0.0, 0.0]]",234.54083393706426,"[Element Ba, Element Ba, Element Ba, Element As, Element P]",False,False,-0.502587117666667,0.5266487897500047,0.0
415,mp,mp-1187797.cif,Yb1 Zn1 O3,YbZnO3,Pm-3m,3.831713,3.831713,3.831713,90.0,90.0,90.0,"(True, True, True)","[PeriodicSite: Yb (0.0, 0.0, 0.0) [0.0, 0.0, 0.0], PeriodicSite: Zn (1.916, 1.916, 1.916) [0.5, 0.5, 0.5], PeriodicSite: O (1.916, 1.916, 0.0) [0.5, 0.5, 0.0], PeriodicSite: O (1.916, 0.0, 1.916) [0.5, 0.0, 0.5], PeriodicSite: O (0.0, 1.916, 1.916) [0.0, 0.5, 0.5]]",56.25730419802639,"[Element Yb, Element Zn, Element O, Element O, Element O]",False,False,-1.9500443152499998,0.21870944624999655,0.0
416,mp,mp-1187342.cif,Tb1 Er1 O3,TbErO3,Pm-3m,4.24976,4.24976,4.24976,90.0,90.0,90.0,"(True, True, True)","[PeriodicSite: Tb (0.0, 0.0, 0.0) [0.0, 0.0, 0.0], PeriodicSite: Er (2.125, 2.125, 2.125) [0.5, 0.5, 0.5], PeriodicSite: O (2.125, 2.125, 0.0) [0.5, 0.5, 0.0], PeriodicSite: O (2.125, 0.0, 2.125) [0.5, 0.0, 0.5], PeriodicSite: O (0.0, 2.125, 2.125) [0.0, 0.5, 0.5]]",76.75262073438618,"[Element Tb, Element Er, Element O, Element O, Element O]",False,False,-3.1951670072500002,0.8259334588750011,1.7284000000000002
417,mp,mp-10374.cif,Cr3 Pt1 N1,Cr3PtN,Pm-3m,3.91539656,3.91236156,3.91239065,90.0,90.0,90.0,"(True, True, True)","[PeriodicSite: Cr (1.958, 0.0, 1.956) [0.5, -0.0, 0.5], PeriodicSite: Cr (0.0, 1.956, 1.956) [-0.0, 0.5, 0.5], PeriodicSite: Cr (1.958, 1.956, 0.0) [0.5, 0.5, -0.0], PeriodicSite: Pt (0.0, 0.0, 0.0) [-0.0, -0.0, 0.0], PeriodicSite: N (1.958, 1.956, 1.956) [0.5, 0.5, 0.5]]",59.93174878989092,"[Element Cr, Element Cr, Element Cr, Element Pt, Element N]",True,True,-0.3922324490000008,0.0,0.0
418,mp,mp-1187569.cif,Yb1 In1 O3,YbInO3,Pm-3m,4.119855,4.119855,4.119855,90.0,90.0,90.0,"(True, True, True)","[PeriodicSite: Yb (0.0, 0.0, 0.0) [0.0, 0.0, 0.0], PeriodicSite: In (2.06, 2.06, 2.06) [0.5, 0.5, 0.5], PeriodicSite: O (2.06, 2.06, 0.0) [0.5, 0.5, 0.0], PeriodicSite: O (2.06, 0.0, 2.06) [0.5, 0.0, 0.5], PeriodicSite: O (0.0, 2.06, 2.06) [0.0, 0.5, 0.5]]",69.92714439586597,"[Element Yb, Element In, Element O, Element O, Element O]",False,False,-2.0643864712500006,0.3866665711249988,0.0
419,mp,mp-1183696.cif,Cr1 Cu1 O3,CrCuO3,Pm-3m,3.698777,3.698777,3.698777,90.0,90.0,90.0,"(True, True, True)","[PeriodicSite: Cr (1.849, 1.849, 1.849) [0.5, 0.5, 0.5], PeriodicSite: Cu (0.0, 0.0, 0.0) [0.0, 0.0, 0.0], PeriodicSite: O (1.849, 1.849, 0.0) [0.5, 0.5, 0.0], PeriodicSite: O (1.849, 0.0, 1.849) [0.5, 0.0, 0.5], PeriodicSite: O (0.0, 1.849, 1.849) [0.0, 0.5, 0.5]]",50.60278799076263,"[Element Cr, Element Cu, Element O, Element O, Element O]",False,True,-1.0249639712499992,1.5484374338749989,0.0
420,mp,mp-1186515.cif,Pr1 Cu1 O3,PrCuO3,Pm-3m,3.846484,3.846484,3.846484,90.0,90.0,90.0,"(True, True, True)","[PeriodicSite: Pr (0.0, 0.0, 0.0) [0.0, 0.0, 0.0], PeriodicSite: Cu (1.923, 1.923, 1.923) [0.5, 0.5, 0.5], PeriodicSite: O (1.923, 1.923, 0.0) [0.5, 0.5, 0.0], PeriodicSite: O (1.923, 0.0, 1.923) [0.5, 0.0, 0.5], PeriodicSite: O (0.0, 1.923, 1.923) [0.0, 0.5, 0.5]]",56.9104200105911,"[Element Pr, Element Cu, Element O, Element O, Element O]",False,False,-2.3162598542500006,0.024629065499999214,0.0
421,mp,mp-1184941.cif,K1 Lu1 O3,KLuO3,Pm-3m,4.375635,4.375635,4.375635,90.0,90.0,90.0,"(True, True, True)","[PeriodicSite: K (0.0, 0.0, 0.0) [0.0, 0.0, 0.0], PeriodicSite: Lu (2.188, 2.188, 2.188) [0.5, 0.5, 0.5], PeriodicSite: O (2.188, 2.188, 0.0) [0.5, 0.5, 0.0], PeriodicSite: O (2.188, 0.0, 2.188) [0.5, 0.0, 0.5], PeriodicSite: O (0.0, 2.188, 2.188) [0.0, 0.5, 0.5]]",83.77670255820917,"[Element K, Element Lu, Element O, Element O, Element O]",False,True,-2.3842014458500005,0.23566239908333309,0.0
422,mp,mp-1185302.cif,Li1 B1 O3,LiBO3,Pm-3m,3.307567,3.307567,3.307567,90.0,90.0,90.0,"(True, True, True)","[PeriodicSite: Li (0.0, 0.0, 0.0) [0.0, 0.0, 0.0], PeriodicSite: B (1.654, 1.654, 1.654) [0.5, 0.5, 0.5], PeriodicSite: O (1.654, 1.654, 0.0) [0.5, 0.5, 0.0], PeriodicSite: O (1.654, 0.0, 1.654) [0.5, 0.0, 0.5], PeriodicSite: O (0.0, 1.654, 1.654) [0.0, 0.5, 0.5]]",36.18478119222366,"[Element Li, Element B, Element O, Element O, Element O]",False,False,-1.2399528637500006,0.955796148066665,0.0
423,mp,mp-1226619.cif,Ce1 Be1 Al3,CeBeAl3,I4mm,6.078223897509617,6.078223897509617,6.078223897509617,140.0484078297961,140.0484078297961,57.77980561405811,"(True, True, True)","[PeriodicSite: Ce (0.0, 0.0, 10.62) [0.9981, 0.9981, 0.0], PeriodicSite: Be (0.0, 0.0, 4.057) [0.3811, 0.3811, 0.0], PeriodicSite: Al (-2.22e-16, 2.076, 2.766) [0.7599, 0.2599, 0.5], PeriodicSite: Al (2.076, -2.22e-16, 2.766) [0.2599, 0.7599, 0.5], PeriodicSite: Al (0.0, 0.0, 6.397) [0.6011, 0.6011, 0.0]]",91.78367762064714,"[Element Ce, Element Be, Element Al, Element Al, Element Al]",False,True,-0.3137663580000002,0.02420600211538826,0.0
424,mp,mp-1187488.cif,Ti1 Te1 O3,TiTeO3,Pm-3m,3.96247,3.96247,3.96247,90.0,90.0,90.0,"(True, True, True)","[PeriodicSite: Ti (0.0, 0.0, 0.0) [0.0, 0.0, 0.0], PeriodicSite: Te (1.981, 1.981, 1.981) [0.5, 0.5, 0.5], PeriodicSite: O (0.0, 0.0, 1.981) [0.0, 0.0, 0.5], PeriodicSite: O (0.0, 1.981, 0.0) [0.0, 0.5, 0.0], PeriodicSite: O (1.981, 0.0, 0.0) [0.5, 0.0, 0.0]]",62.21540914976123,"[Element Ti, Element Te, Element O, Element O, Element O]",False,False,-1.9551555012500004,0.595228222666667,0.0
425,mp,mp-1188025.cif,Zr1 Ni1 O3,ZrNiO3,Pm-3m,3.690521,3.690521,3.690521,90.0,90.0,90.0,"(True, True, True)","[PeriodicSite: Zr (0.0, 0.0, 0.0) [0.0, 0.0, 0.0], PeriodicSite: Ni (1.845, 1.845, 1.845) [0.5, 0.5, 0.5], PeriodicSite: O (1.845, 1.845, 0.0) [0.5, 0.5, 0.0], PeriodicSite: O (1.845, 0.0, 1.845) [0.5, 0.0, 0.5], PeriodicSite: O (0.0, 1.845, 1.845) [0.0, 0.5, 0.5]]",50.26469396929328,"[Element Zr, Element Ni, Element O, Element O, Element O]",False,True,-1.7669571752500004,1.0092109739999975,0.0
426,mp,mp-1187595.cif,Yb1 Ni1 O3,YbNiO3,Pm-3m,3.729843,3.729843,3.729843,90.0,90.0,90.0,"(True, True, True)","[PeriodicSite: Yb (0.0, 0.0, 0.0) [0.0, 0.0, 0.0], PeriodicSite: Ni (1.865, 1.865, 1.865) [0.5, 0.5, 0.5], PeriodicSite: O (1.865, 1.865, 0.0) [0.5, 0.5, 0.0], PeriodicSite: O (1.865, 0.0, 1.865) [0.5, 0.0, 0.5], PeriodicSite: O (0.0, 1.865, 1.865) [0.0, 0.5, 0.5]]",51.88856429991843,"[Element Yb, Element Ni, Element O, Element O, Element O]",False,True,-1.8980353972499997,0.08127268549999922,0.0
427,mp,mp-1013738.cif,Ca3 Sb1 As1,Ca3SbAs,Pm-3m,5.75,5.75,5.75,90.0,90.0,90.0,"(True, True, True)","[PeriodicSite: Ca (0.0, 2.875, 2.875) [0.0, 0.5, 0.5], PeriodicSite: Ca (2.875, 0.0, 2.875) [0.5, 0.0, 0.5], PeriodicSite: Ca (2.875, 2.875, 0.0) [0.5, 0.5, 0.0], PeriodicSite: Sb (2.875, 2.875, 2.875) [0.5, 0.5, 0.5], PeriodicSite: As (0.0, 0.0, 0.0) [0.0, 0.0, 0.0]]",190.109375,"[Element Ca, Element Ca, Element Ca, Element Sb, Element As]",False,False,-0.4695248710000001,0.637019338,0.0
428,mp,mp-1183443.cif,Be1 Sb1 O3,BeSbO3,Pm-3m,3.577371,3.577371,3.577371,90.0,90.0,90.0,"(True, True, True)","[PeriodicSite: Be (0.0, 0.0, 0.0) [0.0, 0.0, 0.0], PeriodicSite: Sb (1.789, 1.789, 1.789) [0.5, 0.5, 0.5], PeriodicSite: O (0.0, 0.0, 1.789) [0.0, 0.0, 0.5], PeriodicSite: O (0.0, 1.789, 0.0) [0.0, 0.5, 0.0], PeriodicSite: O (1.789, 0.0, 0.0) [0.5, 0.0, 0.0]]",45.78170326605363,"[Element Be, Element Sb, Element O, Element O, Element O]",False,False,-1.5264319122500005,0.8179686867500031,0.0
429,mp,mp-1207389.cif,Zn1 N1 F3,ZnNF3,Pm-3m,3.996138,3.996138,3.996138,90.0,90.0,90.0,"(True, True, True)","[PeriodicSite: Zn (0.0, 0.0, 0.0) [0.0, 0.0, 0.0], PeriodicSite: N (1.998, 1.998, 1.998) [0.5, 0.5, 0.5], PeriodicSite: F (1.998, 0.0, 0.0) [0.5, 0.0, 0.0], PeriodicSite: F (0.0, 1.998, 0.0) [0.0, 0.5, 0.0], PeriodicSite: F (0.0, 0.0, 1.998) [0.0, 0.0, 0.5]]",63.814802922926106,"[Element Zn, Element N, Element F, Element F, Element F]",False,True,-0.5710335605000004,0.9907668865000003,0.0
430,mp,mp-1186888.cif,Rb1 Pu1 O3,RbPuO3,Pm-3m,4.28283457,4.28281789,4.28287974,90.0,90.0,90.0,"(True, True, True)","[PeriodicSite: Rb (0.0, 0.0, 0.0) [-0.0, -0.0, 0.0], PeriodicSite: Pu (2.141, 2.141, 2.141) [0.5, 0.5, 0.5], PeriodicSite: O (2.141, 2.141, 0.0) [0.5, 0.5, 0.0], PeriodicSite: O (2.141, 0.0, 2.141) [0.5, -0.0, 0.5], PeriodicSite: O (0.0, 2.141, 2.141) [-0.0, 0.5, 0.5]]",78.55915213020248,"[Element Rb, Element Pu, Element O, Element O, Element O]",False,True,-2.9813119227500002,0.020919207999995137,0.0
431,mp,mp-1096856.cif,Ca3 As1 P1,Ca3AsP,Pm-3m,5.424854,5.424854,5.424854,90.0,90.0,90.0,"(True, True, True)","[PeriodicSite: Ca (0.0, 2.712, 2.712) [0.0, 0.5, 0.5], PeriodicSite: Ca (2.712, 0.0, 2.712) [0.5, 0.0, 0.5], PeriodicSite: Ca (2.712, 2.712, 0.0) [0.5, 0.5, 0.0], PeriodicSite: As (2.712, 2.712, 2.712) [0.5, 0.5, 0.5], PeriodicSite: P (0.0, 0.0, 0.0) [0.0, 0.0, 0.0]]",159.64825035816477,"[Element Ca, Element Ca, Element Ca, Element As, Element P]",False,False,-0.6335261656666666,0.39377216066666687,0.10890000000000022
432,mp,mp-1186897.cif,Rb1 Rh1 O3,RbRhO3,Pm-3m,4.042708,4.042708,4.042708,90.0,90.0,90.0,"(True, True, True)","[PeriodicSite: Rb (0.0, 0.0, 0.0) [0.0, 0.0, 0.0], PeriodicSite: Rh (2.021, 2.021, 2.021) [0.5, 0.5, 0.5], PeriodicSite: O (2.021, 2.021, 0.0) [0.5, 0.5, 0.0], PeriodicSite: O (2.021, 0.0, 2.021) [0.5, 0.0, 0.5], PeriodicSite: O (0.0, 2.021, 2.021) [0.0, 0.5, 0.5]]",66.07194957741817,"[Element Rb, Element Rh, Element O, Element O, Element O]",False,True,-1.1094652547499997,0.11586838300000046,0.0
433,mp,mp-1183290.cif,Ba1 Pt1 O3,BaPtO3,Pm-3m,4.138181,4.138181,4.138181,90.0,90.0,90.0,"(True, True, True)","[PeriodicSite: Ba (0.0, 0.0, 0.0) [0.0, 0.0, 0.0], PeriodicSite: Pt (2.069, 2.069, 2.069) [0.5, 0.5, 0.5], PeriodicSite: O (2.069, 2.069, 0.0) [0.5, 0.5, 0.0], PeriodicSite: O (2.069, 0.0, 2.069) [0.5, 0.0, 0.5], PeriodicSite: O (0.0, 2.069, 2.069) [0.0, 0.5, 0.5]]",70.864454291593,"[Element Ba, Element Pt, Element O, Element O, Element O]",False,False,-1.7131466952499999,0.09931574226666395,0.0
434,mp,mp-1187715.cif,Yb1 Eu1 O3,YbEuO3,Pm-3m,4.211523,4.211523,4.211523,90.0,90.0,90.0,"(True, True, True)","[PeriodicSite: Yb (2.106, 2.106, 2.106) [0.5, 0.5, 0.5], PeriodicSite: Eu (0.0, 0.0, 0.0) [0.0, 0.0, 0.0], PeriodicSite: O (2.106, 2.106, 0.0) [0.5, 0.5, 0.0], PeriodicSite: O (2.106, 0.0, 2.106) [0.5, 0.0, 0.5], PeriodicSite: O (0.0, 2.106, 2.106) [0.0, 0.5, 0.5]]",74.69947171208389,"[Element Yb, Element Eu, Element O, Element O, Element O]",False,True,-2.47423635925,0.5745749960833342,0.0
435,mp,mp-1185420.cif,Li1 Ru1 O3,LiRuO3,Pm-3m,3.834755,3.834755,3.834755,90.0,90.0,90.0,"(True, True, True)","[PeriodicSite: Li (0.0, 0.0, 0.0) [0.0, 0.0, 0.0], PeriodicSite: Ru (1.917, 1.917, 1.917) [0.5, 0.5, 0.5], PeriodicSite: O (1.917, 1.917, 0.0) [0.5, 0.5, 0.0], PeriodicSite: O (1.917, 0.0, 1.917) [0.5, 0.0, 0.5], PeriodicSite: O (0.0, 1.917, 1.917) [0.0, 0.5, 0.5]]",56.39139875519791,"[Element Li, Element Ru, Element O, Element O, Element O]",False,False,-1.458716329916666,0.21108263079166534,0.0
436,mp,mp-1068746.cif,Tl1 H1 Pd3,TlHPd3,Pm-3m,4.09795544,4.09795544,4.09795544,90.0,90.0,90.0,"(True, True, True)","[PeriodicSite: Tl (0.0, 0.0, 0.0) [-0.0, 0.0, 0.0], PeriodicSite: H (2.049, 2.049, 2.049) [0.5, 0.5, 0.5], PeriodicSite: Pd (0.0, 2.049, 2.049) [0.0, 0.5, 0.5], PeriodicSite: Pd (2.049, 2.049, 0.0) [0.5, 0.5, 0.0], PeriodicSite: Pd (2.049, 0.0, 2.049) [0.5, 0.0, 0.5]]",68.81794424742806,"[Element Tl, Element H, Element Pd, Element Pd, Element Pd]",True,False,-0.2607580776666666,0.0,0.0
437,mp,mp-1187189.cif,Ta1 Ag1 O3,TaAgO3,Pm-3m,3.99937,3.99937,3.99937,90.0,90.0,90.0,"(True, True, True)","[PeriodicSite: Ta (0.0, 0.0, 0.0) [0.0, 0.0, 0.0], PeriodicSite: Ag (2.0, 2.0, 2.0) [0.5, 0.5, 0.5], PeriodicSite: O (0.0, 0.0, 2.0) [0.0, 0.0, 0.5], PeriodicSite: O (0.0, 2.0, 0.0) [0.0, 0.5, 0.0], PeriodicSite: O (2.0, 0.0, 0.0) [0.5, 0.0, 0.0]]",63.96976476254995,"[Element Ta, Element Ag, Element O, Element O, Element O]",False,False,-2.3969536505833333,0.035476590999994784,1.7306000000000004
438,mp,mp-1206988.cif,Nb1 B1 Rh3,NbBRh3,Pm-3m,4.112569,4.112569,4.112569,90.0,90.0,90.0,"(True, True, True)","[PeriodicSite: Nb (2.056, 2.056, 2.056) [0.5, 0.5, 0.5], PeriodicSite: B (0.0, 0.0, 0.0) [0.0, 0.0, 0.0], PeriodicSite: Rh (2.056, 0.0, 0.0) [0.5, 0.0, 0.0], PeriodicSite: Rh (0.0, 2.056, 0.0) [0.0, 0.5, 0.0], PeriodicSite: Rh (0.0, 0.0, 2.056) [0.0, 0.0, 0.5]]",69.5567998067079,"[Element Nb, Element B, Element Rh, Element Rh, Element Rh]",False,True,-0.26951732583333265,0.23062063333333427,0.0
439,mp,mp-1075973.cif,Sm1 Mn1 O3,SmMnO3,Pm-3m,3.895077,3.895077,3.895077,90.0,90.0,90.0,"(True, True, True)","[PeriodicSite: Sm (1.948, 1.948, 1.948) [0.5, 0.5, 0.5], PeriodicSite: Mn (0.0, 0.0, 0.0) [0.0, 0.0, 0.0], PeriodicSite: O (1.948, 0.0, 0.0) [0.5, 0.0, 0.0], PeriodicSite: O (0.0, 1.948, 0.0) [0.0, 0.5, 0.0], PeriodicSite: O (0.0, 0.0, 1.948) [0.0, 0.0, 0.5]]",59.09464695105582,"[Element Sm, Element Mn, Element O, Element O, Element O]",False,True,-2.7923707738362076,0.19960383999999998,0.0
440,mp,mp-1179783.cif,Rb1 I1 O3,RbIO3,Cm,7.5342333037769675,6.9551801035076,5.4674922710591005,71.20474655790136,133.5512099796488,117.87953206362383,"(True, True, True)","[PeriodicSite: Rb (3.802, 2.83, 2.863) [0.8315, 0.4157, 0.0], PeriodicSite: I (1.863, 5.026, 5.061) [0.9744, 0.9966, 0.0], PeriodicSite: O (-0.0717, 2.256, 2.267) [0.344, 0.4952, 0.0], PeriodicSite: O (-4.2, -0.9798, 3.057) [0.095, 0.4504, 0.7232], PeriodicSite: O (-0.6349, 1.137, 2.694) [0.3718, 0.4504, 0.2768]]",183.5474527888017,"[Element Rb, Element I, Element O, Element O, Element O]",False,False,-0.3898139627500001,0.9936082099999997,0.4079999999999999
441,mp,mp-1016854.cif,Mn1 Cd1 O3,MnCdO3,Pm-3m,3.812762,3.812762,3.812762,90.0,90.0,90.0,"(True, True, True)","[PeriodicSite: Mn (1.906, 1.906, 1.906) [0.5, 0.5, 0.5], PeriodicSite: Cd (0.0, 0.0, 0.0) [0.0, 0.0, 0.0], PeriodicSite: O (1.906, 1.906, 0.0) [0.5, 0.5, 0.0], PeriodicSite: O (1.906, 0.0, 1.906) [0.5, 0.0, 0.5], PeriodicSite: O (0.0, 1.906, 1.906) [0.0, 0.5, 0.5]]",55.42670862107124,"[Element Mn, Element Cd, Element O, Element O, Element O]",False,True,-1.4198787748362072,0.27990697533333364,0.0
442,mp,mp-11651.cif,Yb3 Sn1 O1,Yb3SnO,Pm-3m,4.69426998,4.69426998,4.69426998,90.0,90.0,90.0,"(True, True, True)","[PeriodicSite: Yb (2.347, 0.0, 2.347) [0.5, 0.0, 0.5], PeriodicSite: Yb (2.347, 2.347, 0.0) [0.5, 0.5, 0.0], PeriodicSite: Yb (0.0, 2.347, 2.347) [0.0, 0.5, 0.5], PeriodicSite: Sn (0.0, 0.0, 0.0) [0.0, 0.0, 0.0], PeriodicSite: O (2.347, 2.347, 2.347) [0.5, 0.5, 0.5]]",103.44373433358722,"[Element Yb, Element Yb, Element Yb, Element Sn, Element O]",True,False,-1.9185275887500004,0.0,0.0
443,mp,mp-1184765.cif,In1 Sb1 O3,InSbO3,Pm-3m,4.106234,4.106234,4.106234,90.0,90.0,90.0,"(True, True, True)","[PeriodicSite: In (0.0, 0.0, 0.0) [0.0, 0.0, 0.0], PeriodicSite: Sb (2.053, 2.053, 2.053) [0.5, 0.5, 0.5], PeriodicSite: O (2.053, 2.053, 0.0) [0.5, 0.5, 0.0], PeriodicSite: O (2.053, 0.0, 2.053) [0.5, 0.0, 0.5], PeriodicSite: O (0.0, 2.053, 2.053) [0.0, 0.5, 0.5]]",69.2358588741692,"[Element In, Element Sb, Element O, Element O, Element O]",False,False,-1.4169619832499998,0.4582018405000001,0.0
444,mp,mp-1069825.cif,Pr1 Al3 Cu1,PrAl3Cu,I4mm,6.0972268827658525,6.0972268827658525,6.0972268827658525,139.33091001096017,139.33091001096017,58.87063967318698,"(True, True, True)","[PeriodicSite: Pr (0.0, 0.0, 10.61) [0.9994, 0.9994, -0.0], PeriodicSite: Al (0.0, 0.0, 4.32) [0.4068, 0.4068, -0.0], PeriodicSite: Al (2.119, -2.22e-16, 2.641) [0.2486, 0.7486, 0.5], PeriodicSite: Al (-2.22e-16, 2.119, 2.641) [0.7486, 0.2486, 0.5], PeriodicSite: Cu (0.0, 0.0, 6.718) [0.6325, 0.6325, 0.0]]",95.35492454597241,"[Element Pr, Element Al, Element Al, Element Al, Element Cu]",True,False,-0.4711158470000001,0.0,0.0
445,mp,mp-1185203.cif,Li1 Cd1 O3,LiCdO3,Pm-3m,3.761737,3.761737,3.761737,90.0,90.0,90.0,"(True, True, True)","[PeriodicSite: Li (1.881, 1.881, 1.881) [0.5, 0.5, 0.5], PeriodicSite: Cd (0.0, 0.0, 0.0) [0.0, 0.0, 0.0], PeriodicSite: O (1.881, 1.881, 0.0) [0.5, 0.5, 0.0], PeriodicSite: O (1.881, 0.0, 1.881) [0.5, 0.0, 0.5], PeriodicSite: O (0.0, 1.881, 1.881) [0.0, 0.5, 0.5]]",53.231081072507145,"[Element Li, Element Cd, Element O, Element O, Element O]",False,True,-0.6841853839166667,0.5380530354285717,0.0
446,mp,mp-1018627.cif,Sc1 B1 Pt3,ScBPt3,Pm-3m,4.262156,4.262156,4.262156,90.0,90.0,90.0,"(True, True, True)","[PeriodicSite: Sc (0.0, 0.0, 0.0) [0.0, 0.0, 0.0], PeriodicSite: B (2.131, 2.131, 2.131) [0.5, 0.5, 0.5], PeriodicSite: Pt (0.0, 2.131, 2.131) [0.0, 0.5, 0.5], PeriodicSite: Pt (2.131, 2.131, 0.0) [0.5, 0.5, 0.0], PeriodicSite: Pt (2.131, 0.0, 2.131) [0.5, 0.0, 0.5]]",77.4262140925559,"[Element Sc, Element B, Element Pt, Element Pt, Element Pt]",False,False,-0.6360926468333326,0.19588053016667484,0.0
447,mp,mp-1187783.cif,U1 Tc1 O3,UTcO3,Pm-3m,3.967178,3.967178,3.967178,90.0,90.0,90.0,"(True, True, True)","[PeriodicSite: U (0.0, 0.0, 0.0) [0.0, 0.0, 0.0], PeriodicSite: Tc (1.984, 1.984, 1.984) [0.5, 0.5, 0.5], PeriodicSite: O (1.984, 1.984, 0.0) [0.5, 0.5, 0.0], PeriodicSite: O (1.984, 0.0, 1.984) [0.5, 0.0, 0.5], PeriodicSite: O (0.0, 1.984, 1.984) [0.0, 0.5, 0.5]]",62.43743604560292,"[Element U, Element Tc, Element O, Element O, Element O]",False,True,-2.017042514250001,0.8903739599166638,0.0
448,mp,mp-1187623.cif,Tl1 Tc1 O3,TlTcO3,Pm-3m,3.990746,3.990746,3.990746,90.0,90.0,90.0,"(True, True, True)","[PeriodicSite: Tl (0.0, 0.0, 0.0) [0.0, 0.0, 0.0], PeriodicSite: Tc (1.995, 1.995, 1.995) [0.5, 0.5, 0.5], PeriodicSite: O (1.995, 1.995, 0.0) [0.5, 0.5, 0.0], PeriodicSite: O (1.995, 0.0, 1.995) [0.5, 0.0, 0.5], PeriodicSite: O (0.0, 1.995, 1.995) [0.0, 0.5, 0.5]]",63.556834845711684,"[Element Tl, Element Tc, Element O, Element O, Element O]",False,False,-1.5045189409166668,0.035979122291666776,0.0