,provider,id,Full_Formula,formula,space_group,a_lattice_param,b_lattice_param,c_lattice_param,aplha_degree,beta_degree,gamma_degree,pbc,sits,volume,species_at_sites,is_stable,is_magnetic,formation_energy,energy_above_hull,band_gap
1297,mp,mp-972160.cif,Yb1 Mg1 O3,YbMgO3,Pm-3m,3.886603,3.886603,3.886603,90.0,90.0,90.0,"(True, True, True)","[PeriodicSite: Yb (0.0, 0.0, 0.0) [0.0, 0.0, 0.0], PeriodicSite: Mg (1.943, 1.943, 1.943) [0.5, 0.5, 0.5], PeriodicSite: O (1.943, 1.943, 0.0) [0.5, 0.5, 0.0], PeriodicSite: O (1.943, 0.0, 1.943) [0.5, 0.0, 0.5], PeriodicSite: O (0.0, 1.943, 1.943) [0.0, 0.5, 0.5]]",58.70979239693698,"[Element Yb, Element Mg, Element O, Element O, Element O]",False,True,-2.35516061325,0.31859516424999956,0.0
1298,mp,mp-20572.cif,Na1 V1 F3,NaVF3,Pm-3m,4.167837,4.167837,4.167837,90.0,90.0,90.0,"(True, True, True)","[PeriodicSite: Na (0.0, 0.0, 0.0) [0.0, 0.0, 0.0], PeriodicSite: V (2.084, 2.084, 2.084) [0.5, 0.5, 0.5], PeriodicSite: F (0.0, 2.084, 2.084) [0.0, 0.5, 0.5], PeriodicSite: F (2.084, 0.0, 2.084) [0.5, 0.0, 0.5], PeriodicSite: F (2.084, 2.084, 0.0) [0.5, 0.5, 0.0]]",72.39893494667842,"[Element Na, Element V, Element F, Element F, Element F]",False,True,-2.904404498810346,0.09134990799999976,0.6978
1299,mp,mp-972931.cif,Eu1 Mg1 O3,EuMgO3,Pm-3m,3.92269,3.92269,3.92269,90.0,90.0,90.0,"(True, True, True)","[PeriodicSite: Eu (1.961, 1.961, 1.961) [0.5, 0.5, 0.5], PeriodicSite: Mg (0.0, 0.0, 0.0) [0.0, 0.0, 0.0], PeriodicSite: O (0.0, 0.0, 1.961) [0.0, 0.0, 0.5], PeriodicSite: O (0.0, 1.961, 0.0) [0.0, 0.5, 0.0], PeriodicSite: O (1.961, 0.0, 0.0) [0.5, 0.0, 0.0]]",60.3603799640011,"[Element Eu, Element Mg, Element O, Element O, Element O]",False,True,-2.542842355250001,0.27135900099999866,0.0
1300,mp,mp-557257.cif,K1 V1 F3,KVF3,Pm-3m,4.12938738,4.12940323,4.1292904,90.0,90.0,90.0,"(True, True, True)","[PeriodicSite: K (0.0, 0.0, 0.0) [-0.0, 0.0, 0.0], PeriodicSite: V (2.065, 2.065, 2.065) [0.5, 0.5, 0.5], PeriodicSite: F (0.0, 2.065, 2.065) [0.0, 0.5, 0.5], PeriodicSite: F (2.065, 0.0, 2.065) [0.5, 0.0, 0.5], PeriodicSite: F (2.065, 2.065, 0.0) [0.5, 0.5, 0.0]]",70.41227003340603,"[Element K, Element V, Element F, Element F, Element F]",True,True,-3.0446895221000005,0.0,2.0758999999999994
1301,mp,mp-729742.cif,Sn1 C1 Cl3,SnCCl3,Cm,7.183292848041001,7.183292848041001,3.8907995085746836,87.09700297648115,87.09700297648115,123.68124972777532,"(True, True, True)","[PeriodicSite: Sn (0.0, 5.609, 1.503) [0.8034, 0.8034, 0.3887], PeriodicSite: C (0.0, 6.731, 3.312) [0.94, 0.94, 0.8561], PeriodicSite: Cl (-4.097, 2.788, 2.669) [0.04525, 0.6922, 0.6901], PeriodicSite: Cl (4.097, 2.788, 2.669) [0.6922, 0.04525, 0.6901], PeriodicSite: Cl (0.0, 3.269, 1.571) [0.4572, 0.4572, 0.4061]]",166.0981478357188,"[Element Sn, Element C, Element Cl, Element Cl, Element Cl]",False,True,0.030411835499999994,1.1646895017500007,0.787
1302,mp,mp-1222293.cif,Lu1 Bi1 Te3,LuBiTe3,R3m,10.902662283536072,10.902662283536072,10.902662380043372,23.117270673661253,23.117270673661253,23.117273991816095,"(True, True, True)","[PeriodicSite: Lu (19.03, 0.0, 2.263) [0.6024, 0.6024, 0.6024], PeriodicSite: Bi (12.57, 0.0, 1.495) [0.3978, 0.3978, 0.3978], PeriodicSite: Te (31.44, 0.0, 3.739) [0.9951, 0.9951, 0.9951], PeriodicSite: Te (24.8, 0.0, 2.949) [0.785, 0.785, 0.785], PeriodicSite: Te (6.943, 0.0, 0.8256) [0.2197, 0.2197, 0.2197]]",175.35161681870088,"[Element Lu, Element Bi, Element Te, Element Te, Element Te]",False,False,-1.0287194439999994,0.02304348749999985,1.1042999999999994
1303,mp,mp-973655.cif,Lu1 Si1 O3,LuSiO3,Pm-3m,3.680432,3.680432,3.680432,90.0,90.0,90.0,"(True, True, True)","[PeriodicSite: Lu (0.0, 0.0, 0.0) [0.0, 0.0, 0.0], PeriodicSite: Si (1.84, 1.84, 1.84) [0.5, 0.5, 0.5], PeriodicSite: O (1.84, 1.84, 0.0) [0.5, 0.5, 0.0], PeriodicSite: O (1.84, 0.0, 1.84) [0.5, 0.0, 0.5], PeriodicSite: O (0.0, 1.84, 1.84) [0.0, 0.5, 0.5]]",49.85358501080958,"[Element Lu, Element Si, Element O, Element O, Element O]",False,False,-2.71654977325,0.8780173768749941,0.0
1304,mp,mp-510382.cif,Fe3 Pt1 N1,Fe3PtN,Pm-3m,4.690942,4.690942,4.690942,90.0,90.0,90.0,"(True, True, True)","[PeriodicSite: Fe (0.0, 2.345, 2.345) [0.0, 0.5, 0.5], PeriodicSite: Fe (2.345, 2.345, 0.0) [0.5, 0.5, 0.0], PeriodicSite: Fe (2.345, 0.0, 2.345) [0.5, 0.0, 0.5], PeriodicSite: Pt (2.345, 2.345, 2.345) [0.5, 0.5, 0.5], PeriodicSite: N (0.0, 0.0, 0.0) [0.0, 0.0, 0.0]]",103.22388246464736,"[Element Fe, Element Fe, Element Fe, Element Pt, Element N]",False,True,1.9854787690000015,2.2371652079999986,0.0
1305,mp,mp-975284.cif,Rb1 Ir1 O3,RbIrO3,Pm-3m,4.009203,4.009203,4.009203,90.0,90.0,90.0,"(True, True, True)","[PeriodicSite: Rb (0.0, 0.0, 0.0) [0.0, 0.0, 0.0], PeriodicSite: Ir (2.005, 2.005, 2.005) [0.5, 0.5, 0.5], PeriodicSite: O (2.005, 2.005, 0.0) [0.5, 0.5, 0.0], PeriodicSite: O (2.005, 0.0, 2.005) [0.5, 0.0, 0.5], PeriodicSite: O (0.0, 2.005, 2.005) [0.0, 0.5, 0.5]]",64.44276112195803,"[Element Rb, Element Ir, Element O, Element O, Element O]",False,True,-1.20618138675,0.04431511900000995,0.0
1306,mp,mp-978862.cif,Sr1 Al1 O3,SrAlO3,Pm-3m,3.835761,3.835761,3.835761,90.0,90.0,90.0,"(True, True, True)","[PeriodicSite: Sr (0.0, 0.0, 0.0) [0.0, 0.0, 0.0], PeriodicSite: Al (1.918, 1.918, 1.918) [0.5, 0.5, 0.5], PeriodicSite: O (1.918, 1.918, 0.0) [0.5, 0.5, 0.0], PeriodicSite: O (1.918, 0.0, 1.918) [0.5, 0.0, 0.5], PeriodicSite: O (0.0, 1.918, 1.918) [0.0, 0.5, 0.5]]",56.43579113290282,"[Element Sr, Element Al, Element O, Element O, Element O]",False,True,-3.033029024583334,0.05084952224999473,0.0
1307,mp,mp-1220168.cif,Nd1 Ga3 Cu1,NdGa3Cu,I-4m2,6.046518445971759,6.046518445971759,6.046518445971759,139.76044199980902,139.76044199980902,58.217214420637234,"(True, True, True)","[PeriodicSite: Nd (0.0, 0.0, 0.0) [-0.0, -0.0, -0.0], PeriodicSite: Ga (0.0, 0.0, 6.52) [0.6171, 0.6171, -0.0], PeriodicSite: Ga (0.0, 0.0, 4.046) [0.3829, 0.3829, 0.0], PeriodicSite: Ga (0.0, 2.08, 2.641) [0.75, 0.25, 0.5], PeriodicSite: Cu (2.08, 0.0, 2.641) [0.25, 0.75, 0.5]]",91.41430838377579,"[Element Nd, Element Ga, Element Ga, Element Ga, Element Cu]",True,False,-0.5046670519999992,0.0,0.0
1308,mp,mp-998712.cif,Tl1 Ge1 F3,TlGeF3,P1,4.720373,4.731781002963366,4.859761236691985,101.85564663283832,93.83098950738825,90.37063819003056,"(True, True, True)","[PeriodicSite: Tl (0.1804, -0.8047, 4.565) [0.1046, 0.0334, 0.9622], PeriodicSite: Ge (2.27, 1.866, 2.346) [0.5182, 0.4989, 0.4946], PeriodicSite: F (4.145, 1.97, 2.617) [0.9196, 0.5331, 0.5515], PeriodicSite: F (1.952, 1.654, 4.206) [0.4779, 0.5371, 0.8866], PeriodicSite: F (2.06, 3.749, 2.587) [0.4797, 0.9076, 0.5452]]",105.97098872631973,"[Element Tl, Element Ge, Element F, Element F, Element F]",False,False,-2.281011303166667,0.027987878999999438,3.1344000000000003
1309,mp,mp-973536.cif,Lu1 U1 O3,LuUO3,Pm-3m,4.192118,4.192118,4.192118,90.0,90.0,90.0,"(True, True, True)","[PeriodicSite: Lu (0.0, 0.0, 0.0) [0.0, 0.0, 0.0], PeriodicSite: U (2.096, 2.096, 2.096) [0.5, 0.5, 0.5], PeriodicSite: O (0.0, 0.0, 2.096) [0.0, 0.0, 0.5], PeriodicSite: O (0.0, 2.096, 0.0) [0.0, 0.5, 0.0], PeriodicSite: O (2.096, 0.0, 0.0) [0.5, 0.0, 0.0]]",73.67166685696586,"[Element Lu, Element U, Element O, Element O, Element O]",False,True,-3.0501088032500006,0.7046519252701575,0.0
1310,mp,mp-985292.cif,Ag1 B1 O3,AgBO3,Pm-3m,3.483287,3.483287,3.483287,90.0,90.0,90.0,"(True, True, True)","[PeriodicSite: Ag (0.0, 0.0, 0.0) [0.0, 0.0, 0.0], PeriodicSite: B (1.742, 1.742, 1.742) [0.5, 0.5, 0.5], PeriodicSite: O (1.742, 1.742, 0.0) [0.5, 0.5, 0.0], PeriodicSite: O (1.742, 0.0, 1.742) [0.5, 0.0, 0.5], PeriodicSite: O (0.0, 1.742, 1.742) [0.0, 0.5, 0.5]]",42.26372548752631,"[Element Ag, Element B, Element O, Element O, Element O]",False,True,-0.5494537004166666,1.0397133027083338,0.0
1311,mp,mp-574239.cif,Tm3 Al1 C1,Tm3AlC,Pm-3m,5.301577,5.301577,5.301577,90.0,90.0,90.0,"(True, True, True)","[PeriodicSite: Tm (2.651, 2.651, 0.0) [0.5, 0.5, 0.0], PeriodicSite: Tm (2.651, 0.0, 2.651) [0.5, 0.0, 0.5], PeriodicSite: Tm (0.0, 2.651, 2.651) [0.0, 0.5, 0.5], PeriodicSite: Al (2.651, 2.651, 2.651) [0.5, 0.5, 0.5], PeriodicSite: C (0.0, 0.0, 0.0) [0.0, 0.0, 0.0]]",149.00993333609298,"[Element Tm, Element Tm, Element Tm, Element Al, Element C]",False,False,1.4560400645000002,1.824206665499998,0.0
1312,mp,mp-1215945.cif,Y1 Ga3 Cu1,YGa3Cu,I-4m2,6.050809338610812,6.050809338610812,6.050809338610812,140.89166206980457,140.89166206980457,56.501906318581234,"(True, True, True)","[PeriodicSite: Y (0.0, 0.0, 0.0) [-0.0, -0.0, -0.0], PeriodicSite: Ga (0.0, 0.0, 6.541) [0.6136, 0.6136, 0.0], PeriodicSite: Ga (0.0, 0.0, 4.119) [0.3864, 0.3864, -0.0], PeriodicSite: Ga (0.0, 2.025, 2.665) [0.75, 0.25, 0.5], PeriodicSite: Cu (2.025, 0.0, 2.665) [0.25, 0.75, 0.5]]",87.4429006031322,"[Element Y, Element Ga, Element Ga, Element Ga, Element Cu]",False,False,-0.46606223383333256,0.00042537999999758824,0.0
1313,mp,mp-552676.cif,La1 Fe1 O3,LaFeO3,Pm-3m,3.957177,3.957177,3.957177,90.0,90.0,90.0,"(True, True, True)","[PeriodicSite: La (0.0, 0.0, 0.0) [0.0, 0.0, 0.0], PeriodicSite: Fe (1.979, 1.979, 1.979) [0.5, 0.5, 0.5], PeriodicSite: O (1.979, 1.979, 0.0) [0.5, 0.5, 0.0], PeriodicSite: O (1.979, 0.0, 1.979) [0.5, 0.0, 0.5], PeriodicSite: O (0.0, 1.979, 1.979) [0.0, 0.5, 0.5]]",61.96642318273111,"[Element La, Element Fe, Element O, Element O, Element O]",False,True,-2.7236806862500003,0.13000849400000014,0.8483999999999998
1314,mp,mp-1422819.cif,Mn1 In1 F3,MnInF3,R3m,4.3063194339408915,4.3063194339408915,4.306319965134964,90.03869179883324,90.03869179883324,90.03870487671344,"(True, True, True)","[PeriodicSite: Mn (3.113, 0.0, 2.204) [0.5118, 0.5118, 0.5118], PeriodicSite: In (0.04429, 0.0, 0.03135) [0.00728, 0.00728, 0.00728], PeriodicSite: F (1.609, 1.536, 2.226) [0.01252, 0.5168, 0.5168], PeriodicSite: F (3.146, 0.0, 0.05392) [0.5168, 0.5168, 0.01252], PeriodicSite: F (1.609, -1.536, 2.226) [0.5168, 0.01252, 0.5168]]",79.85800960507555,"[Element Mn, Element In, Element F, Element F, Element F]",False,True,-2.5056709430862063,0.031222714666667706,2.9034999999999997
1315,mp,mp-558843.cif,K1 I1 O3,KIO3,Pm-3m,4.200263,4.200263,4.200263,90.0,90.0,90.0,"(True, True, True)","[PeriodicSite: K (0.0, 0.0, 0.0) [0.0, 0.0, 0.0], PeriodicSite: I (2.1, 2.1, 2.1) [0.5, 0.5, 0.5], PeriodicSite: O (2.1, 0.0, 2.1) [0.5, 0.0, 0.5], PeriodicSite: O (2.1, 2.1, 0.0) [0.5, 0.5, 0.0], PeriodicSite: O (0.0, 2.1, 2.1) [0.0, 0.5, 0.5]]",74.10191883154758,"[Element K, Element I, Element O, Element O, Element O]",False,False,-1.1834666138500005,0.19728406625000172,0.0
1316,mp,mp-974581.cif,Re1 Bi1 O3,ReBiO3,Pm-3m,4.023439,4.023439,4.023439,90.0,90.0,90.0,"(True, True, True)","[PeriodicSite: Re (0.0, 0.0, 0.0) [0.0, 0.0, 0.0], PeriodicSite: Bi (2.012, 2.012, 2.012) [0.5, 0.5, 0.5], PeriodicSite: O (0.0, 0.0, 2.012) [0.0, 0.0, 0.5], PeriodicSite: O (0.0, 2.012, 0.0) [0.0, 0.5, 0.0], PeriodicSite: O (2.012, 0.0, 0.0) [0.5, 0.0, 0.0]]",65.13167751772735,"[Element Re, Element Bi, Element O, Element O, Element O]",False,False,-1.2221644142499997,0.5016234852500006,0.0
1317,mp,mp-675460.cif,Li1 Ti1 Cl3,LiTiCl3,P4/mmm,5.05918,5.05918,4.860325,90.0,90.0,90.0,"(True, True, True)","[PeriodicSite: Li (2.53, 2.53, 2.43) [0.5, 0.5, 0.5], PeriodicSite: Ti (0.0, 0.0, 2.43) [0.0, 0.0, 0.5], PeriodicSite: Cl (0.0, 2.53, 2.43) [0.0, 0.5, 0.5], PeriodicSite: Cl (2.53, 0.0, 2.43) [0.5, 0.0, 0.5], PeriodicSite: Cl (0.0, 0.0, 0.0) [0.0, 0.0, 0.0]]",124.4014875171025,"[Element Li, Element Ti, Element Cl, Element Cl, Element Cl]",False,True,-1.761458777333333,0.20207853654166819,0.0
1318,mp,mp-1225459.cif,Er1 Si1 Ni3,ErSiNi3,I4mm,5.706942796749062,5.706942796749062,5.706942796749062,141.27947073508594,141.27947073508594,55.9156591590529,"(True, True, True)","[PeriodicSite: Er (0.0, 0.0, 0.1163) [0.01153, 0.01153, 0.0], PeriodicSite: Si (0.0, 0.0, 3.827) [0.3796, 0.3796, 0.0], PeriodicSite: Ni (1.11e-16, 1.892, 2.556) [0.7536, 0.2536, 0.5], PeriodicSite: Ni (1.892, 1.11e-16, 2.556) [0.2536, 0.7536, 0.5], PeriodicSite: Ni (0.0, 0.0, 6.067) [0.6018, 0.6018, 0.0]]",72.17062530617459,"[Element Er, Element Si, Element Ni, Element Ni, Element Ni]",False,False,-0.6138366660000003,0.014741681499998549,0.0
1319,mp,mp-984723.cif,Dy1 Al1 O3,DyAlO3,Pm-3m,3.711247,3.711247,3.711247,90.0,90.0,90.0,"(True, True, True)","[PeriodicSite: Dy (0.0, 0.0, 0.0) [0.0, 0.0, 0.0], PeriodicSite: Al (1.856, 1.856, 1.856) [0.5, 0.5, 0.5], PeriodicSite: O (1.856, 1.856, 0.0) [0.5, 0.5, 0.0], PeriodicSite: O (1.856, 0.0, 1.856) [0.5, 0.0, 0.5], PeriodicSite: O (0.0, 1.856, 1.856) [0.0, 0.5, 0.5]]",51.11631980728927,"[Element Dy, Element Al, Element O, Element O, Element O]",False,False,-3.62011074925,0.14174985300001453,2.9483000000000006
1320,mp,mp-978489.cif,Si1 Pb1 O3,SiPbO3,Pm-3m,3.748178,3.748178,3.748178,90.0,90.0,90.0,"(True, True, True)","[PeriodicSite: Si (1.874, 1.874, 1.874) [0.5, 0.5, 0.5], PeriodicSite: Pb (0.0, 0.0, 0.0) [0.0, 0.0, 0.0], PeriodicSite: O (1.874, 1.874, 0.0) [0.5, 0.5, 0.0], PeriodicSite: O (1.874, 0.0, 1.874) [0.5, 0.0, 0.5], PeriodicSite: O (0.0, 1.874, 1.874) [0.0, 0.5, 0.5]]",52.65754671539653,"[Element Si, Element Pb, Element O, Element O, Element O]",False,False,-2.1727379212500004,0.42395193916666774,1.1847999999999992
1321,mp,mp-760386.cif,Cs1 Cl1 O3,CsClO3,R3m,4.790057835492177,4.790057835492177,4.790058042477565,85.84492340793757,85.84492340793757,85.8449336338168,"(True, True, True)","[PeriodicSite: Cs (7.301, 0.0, 4.647) [0.9749, 0.9749, 0.9749], PeriodicSite: Cl (3.667, 0.0, 2.334) [0.4897, 0.4897, 0.4897], PeriodicSite: O (4.518, -1.211, 2.047) [0.8007, 0.4294, 0.4294], PeriodicSite: O (4.518, 1.211, 2.047) [0.4294, 0.8007, 0.4294], PeriodicSite: O (3.392, 0.0, 3.816) [0.4294, 0.4294, 0.8007]]",109.0794275572189,"[Element Cs, Element Cl, Element O, Element O, Element O]",False,False,-1.1543297288362069,0.06744734062500068,5.465800000000001
1322,mp,mp-865758.cif,Yb1 Ge1 O3,YbGeO3,Pm-3m,3.68400143,3.68400143,3.68400143,90.0,90.0,90.0,"(True, True, True)","[PeriodicSite: Yb (0.0, 0.0, 0.0) [0.0, 0.0, 0.0], PeriodicSite: Ge (1.842, 1.842, 1.842) [0.5, 0.5, 0.5], PeriodicSite: O (1.842, 1.842, 0.0) [0.5, 0.5, 0.0], PeriodicSite: O (1.842, 0.0, 1.842) [0.5, 0.0, 0.5], PeriodicSite: O (0.0, 1.842, 1.842) [0.0, 0.5, 0.5]]",49.99877572728484,"[Element Yb, Element Ge, Element O, Element O, Element O]",True,False,-2.7659862942499998,0.0,1.0156999999999998
1323,mp,mp-22364.cif,Cr1 Pb1 O3,CrPbO3,Pm-3m,3.917057,3.917057,3.917057,90.0,90.0,90.0,"(True, True, True)","[PeriodicSite: Cr (0.0, 0.0, 0.0) [0.0, 0.0, 0.0], PeriodicSite: Pb (1.959, 1.959, 1.959) [0.5, 0.5, 0.5], PeriodicSite: O (0.0, 0.0, 1.959) [0.0, 0.0, 0.5], PeriodicSite: O (0.0, 1.959, 0.0) [0.0, 0.5, 0.0], PeriodicSite: O (1.959, 0.0, 0.0) [0.5, 0.0, 0.0]]",60.100719885198174,"[Element Cr, Element Pb, Element O, Element O, Element O]",False,True,-1.7387665652500004,0.15658225600001163,0.0
1324,mp,mp-29242.cif,Ba3 Pb1 O1,Ba3PbO,Pm-3m,5.52184574,5.52184574,5.52184574,90.0,90.0,90.0,"(True, True, True)","[PeriodicSite: Ba (2.761, 0.0, 2.761) [0.5, -0.0, 0.5], PeriodicSite: Ba (0.0, 2.761, 2.761) [-0.0, 0.5, 0.5], PeriodicSite: Ba (2.761, 2.761, 0.0) [0.5, 0.5, -0.0], PeriodicSite: Pb (0.0, 0.0, 0.0) [0.0, 0.0, 0.0], PeriodicSite: O (2.761, 2.761, 2.761) [0.5, 0.5, 0.5]]",168.36538573045777,"[Element Ba, Element Ba, Element Ba, Element Pb, Element O]",True,False,-1.4926419857500002,0.0,0.0
1325,mp,mp-1228834.cif,Cs1 Hg1 Cl3,CsHgCl3,R3m,5.4002117988976135,5.4002117988976135,5.4002118085986215,89.83657628544536,89.83657628544536,89.83658393746161,"(True, True, True)","[PeriodicSite: Cs (0.06789, 0.0, 0.0478) [0.008852, 0.008852, 0.008852], PeriodicSite: Hg (3.975, 0.0, 2.799) [0.5182, 0.5182, 0.5182], PeriodicSite: Cl (2.054, 1.905, 2.791) [0.01731, 0.5168, 0.5168], PeriodicSite: Cl (3.953, 0.0, 0.09347) [0.5168, 0.5168, 0.01731], PeriodicSite: Cl (2.054, -1.905, 2.791) [0.5168, 0.01731, 0.5168]]",157.4806110833571,"[Element Cs, Element Hg, Element Cl, Element Cl, Element Cl]",False,False,-1.522743950586207,0.03399767933332276,0.0
1326,mp,mp-998201.cif,Rb1 Ag1 Cl3,RbAgCl3,Pm,5.165475,5.167096,5.16928314922253,89.93675529568517,90.0,90.0,"(True, True, True)","[PeriodicSite: Rb (0.0, 5.172, 5.143) [0.0, 0.9999, 0.995], PeriodicSite: Ag (2.583, 2.604, 2.51) [0.5, 0.5033, 0.4856], PeriodicSite: Cl (0.0, 2.615, 2.51) [0.0, 0.5055, 0.4855], PeriodicSite: Cl (2.583, 2.579, 5.095) [0.5, 0.498, 0.9856], PeriodicSite: Cl (2.583, 0.01963, 2.524) [0.5, 0.00326, 0.4883]]",137.97069477505036,"[Element Rb, Element Ag, Element Cl, Element Cl, Element Cl]",True,False,-1.4208789488333333,0.0,0.0
1327,mp,mp-995191.cif,Ba1 Ti1 O3,BaTiO3,Amm2,4.120883055355976,4.120883055355976,5.032511,90.0,90.0,90.40670806176456,"(True, True, True)","[PeriodicSite: Ba (2.904, 2.905, 0.0) [0.003352, 0.9966, 0.0], PeriodicSite: Ti (2.904, -0.05262, 2.516) [0.509, 0.491, 0.5], PeriodicSite: O (2.904, -2.868, 2.516) [0.9903, 0.00967, 0.5], PeriodicSite: O (1.455, -1.393, 2.516) [0.4888, 0.01231, 0.5], PeriodicSite: O (4.352, -1.393, 2.516) [0.9877, 0.5112, 0.5]]",85.45832403722468,"[Element Ba, Element Ti, Element O, Element O, Element O]",False,False,-1.6863858119166673,1.8066145519999992,0.0
1328,mp,mp-7114.cif,Ho3 Sn1 C1,Ho3SnC,Pm-3m,5.57875,5.57875,5.57875,90.0,90.0,90.0,"(True, True, True)","[PeriodicSite: Ho (2.789, 0.0, 2.789) [0.5, 0.0, 0.5], PeriodicSite: Ho (2.789, 2.789, 0.0) [0.5, 0.5, 0.0], PeriodicSite: Ho (0.0, 2.789, 2.789) [0.0, 0.5, 0.5], PeriodicSite: Sn (2.789, 2.789, 2.789) [0.5, 0.5, 0.5], PeriodicSite: C (0.0, 0.0, 0.0) [0.0, 0.0, 0.0]]",173.6243766542969,"[Element Ho, Element Ho, Element Ho, Element Sn, Element C]",False,False,1.4718745794999997,2.0006568153333335,0.0
1329,mp,mp-632808.cif,Ba1 Li1 H3,BaLiH3,Pm-3m,5.065786,5.065786,5.065786,90.0,90.0,90.0,"(True, True, True)","[PeriodicSite: Ba (2.533, 2.533, 2.533) [0.5, 0.5, 0.5], PeriodicSite: Li (0.0, 0.0, 0.0) [0.0, 0.0, 0.0], PeriodicSite: H (0.0, 2.533, 2.533) [0.0, 0.5, 0.5], PeriodicSite: H (2.533, 2.533, 0.0) [0.5, 0.5, 0.0], PeriodicSite: H (2.533, 0.0, 2.533) [0.5, 0.0, 0.5]]",129.99915167544583,"[Element Ba, Element Li, Element H, Element H, Element H]",False,False,0.009631674333333251,0.6205879219999999,1.1987
1330,mp,mp-675022.cif,Cs1 Pb1 Cl3,CsPbCl3,R32,5.676943642575174,5.676943642575174,5.676942959092829,89.68499391794262,89.68499391794262,89.68498376703421,"(True, True, True)","[PeriodicSite: Cs (4.056, 0.0, 2.825) [0.5, 0.5, 0.5], PeriodicSite: Pb (0.0, 0.0, 0.0) [-0.0, 0.0, -0.0], PeriodicSite: Cl (5.964, -1.927, 0.08629) [0.9814, 0.5, 0.0186], PeriodicSite: Cl (2.149, -1.927, 5.564) [0.5, 0.0186, 0.9814], PeriodicSite: Cl (4.056, 3.854, 2.825) [0.0186, 0.9814, 0.5]]",182.94648775297858,"[Element Cs, Element Pb, Element Cl, Element Cl, Element Cl]",False,False,-1.8775600395862064,0.011752994999993494,2.6799
1331,mp,mp-12572.cif,Ca1 Pd3 C1,CaPd3C,Pm-3m,4.281632,4.281632,4.281632,90.0,90.0,90.0,"(True, True, True)","[PeriodicSite: Ca (0.0, 0.0, 0.0) [0.0, 0.0, 0.0], PeriodicSite: Pd (0.0, 2.141, 2.141) [0.0, 0.5, 0.5], PeriodicSite: Pd (2.141, 2.141, 0.0) [0.5, 0.5, 0.0], PeriodicSite: Pd (2.141, 0.0, 2.141) [0.5, 0.0, 0.5], PeriodicSite: C (2.141, 2.141, 2.141) [0.5, 0.5, 0.5]]",78.49247308911087,"[Element Ca, Element Pd, Element Pd, Element Pd, Element C]",False,False,-0.1935437075000003,0.23097491449999907,0.0
1332,mp,mp-998234.cif,Cs1 Tl1 F3,CsTlF3,R3m,4.782049794379184,4.782049794379184,4.782049490054343,90.08065735665942,90.08065735665942,90.08065485686507,"(True, True, True)","[PeriodicSite: Cs (0.364, 0.0, 0.2579) [0.05393, 0.05393, 0.05393], PeriodicSite: Tl (3.693, 0.0, 2.617) [0.5472, 0.5472, 0.5472], PeriodicSite: F (1.987, 1.681, 2.598) [0.0465, 0.5432, 0.5432], PeriodicSite: F (3.67, 0.0, 0.2224) [0.5432, 0.5432, 0.0465], PeriodicSite: F (1.987, -1.681, 2.598) [0.5432, 0.0465, 0.5432]]",109.35558349863894,"[Element Cs, Element Tl, Element F, Element F, Element F]",False,False,-2.4520765917528733,0.0648219439999993,0.0