,provider,id,Full_Formula,formula,space_group,a_lattice_param,b_lattice_param,c_lattice_param,aplha_degree,beta_degree,gamma_degree,pbc,sits,volume,species_at_sites,is_stable,is_magnetic,formation_energy,energy_above_hull,band_gap
1226,mp,mp-22120.cif,Y1 Rh3 C1,YRh3C,Pm-3m,4.15423783,4.15423783,4.15423783,90.0,90.0,90.0,"(True, True, True)","[PeriodicSite: Y (0.0, 0.0, 0.0) [0.0, 0.0, 0.0], PeriodicSite: Rh (0.0, 2.077, 2.077) [0.0, 0.5, 0.5], PeriodicSite: Rh (2.077, 0.0, 2.077) [0.5, 0.0, 0.5], PeriodicSite: Rh (2.077, 2.077, 0.0) [0.5, 0.5, 0.0], PeriodicSite: C (2.077, 2.077, 2.077) [0.5, 0.5, 0.5]]",71.69255674971174,"[Element Y, Element Rh, Element Rh, Element Rh, Element C]",True,False,-0.484829422833333,0.0,0.0
1227,mp,mp-1413707.cif,Mg1 W1 O3,MgWO3,Cm,4.093572600749253,4.093572600749253,4.149331150293623,84.226926349091,84.226926349091,94.88192269260853,"(True, True, True)","[PeriodicSite: Mg (0.0, 2.729, 1.228) [0.4596, 0.4596, 0.2993], PeriodicSite: W (0.0, 0.157, 0.1546) [0.02415, 0.02415, 0.03769], PeriodicSite: O (-1.411, 4.216, 0.4529) [0.515, 0.9831, 0.1104], PeriodicSite: O (1.411, 4.216, 0.4529) [0.9831, 0.515, 0.1104], PeriodicSite: O (0.0, 0.8148, 2.296) [0.0848, 0.0848, 0.5595]]",68.50902686479888,"[Element Mg, Element W, Element O, Element O, Element O]",False,True,-2.0641605812500012,0.3976137239999957,1.0761000000000003
1228,mp,mp-20229.cif,Sm3 In1 C1,Sm3InC,Pm-3m,5.710743,5.710743,5.710743,90.0,90.0,90.0,"(True, True, True)","[PeriodicSite: Sm (2.855, 0.0, 2.855) [0.5, 0.0, 0.5], PeriodicSite: Sm (2.855, 2.855, 0.0) [0.5, 0.5, 0.0], PeriodicSite: Sm (0.0, 2.855, 2.855) [0.0, 0.5, 0.5], PeriodicSite: In (2.855, 2.855, 2.855) [0.5, 0.5, 0.5], PeriodicSite: C (0.0, 0.0, 0.0) [0.0, 0.0, 0.0]]",186.24209499590953,"[Element Sm, Element Sm, Element Sm, Element In, Element C]",False,False,1.5810584914999999,1.8720807280000011,0.0
1229,mp,mp-862606.cif,Eu1 Sn1 O3,EuSnO3,Pm-3m,4.07580535,4.0760898,4.07609181,90.0,90.0,90.0,"(True, True, True)","[PeriodicSite: Eu (0.0, 0.0, 0.0) [0.0, -0.0, 0.0], PeriodicSite: Sn (2.038, 2.038, 2.038) [0.5, 0.5, 0.5], PeriodicSite: O (2.038, 2.038, 0.0) [0.5, 0.5, 0.0], PeriodicSite: O (2.038, 0.0, 2.038) [0.5, -0.0, 0.5], PeriodicSite: O (0.0, 2.038, 2.038) [0.0, 0.5, 0.5]]",67.71753422187594,"[Element Eu, Element Sn, Element O, Element O, Element O]",False,True,-2.5499123822500005,0.06338724476923119,0.0
1230,mp,mp-975333.cif,Li1 Ca1 O3,LiCaO3,Pm-3m,3.77971,3.77971,3.77971,90.0,90.0,90.0,"(True, True, True)","[PeriodicSite: Li (1.89, 1.89, 1.89) [0.5, 0.5, 0.5], PeriodicSite: Ca (0.0, 0.0, 0.0) [0.0, 0.0, 0.0], PeriodicSite: O (1.89, 1.89, 0.0) [0.5, 0.5, 0.0], PeriodicSite: O (1.89, 0.0, 1.89) [0.5, 0.0, 0.5], PeriodicSite: O (0.0, 1.89, 1.89) [0.0, 0.5, 0.5]]",53.99772204566962,"[Element Li, Element Ca, Element O, Element O, Element O]",False,True,-1.650331045916667,0.34843050542857146,0.0
1231,mp,mp-998535.cif,In1 Pb1 Cl3,InPbCl3,Cm,5.7595891828514985,5.7595891828514985,5.757001592790904,89.833630793831,89.833630793831,88.85990247730508,"(True, True, True)","[PeriodicSite: In (0.0, 7.39, 5.292) [0.8957, 0.8957, 0.9192], PeriodicSite: Pb (0.0, 4.115, 2.88) [0.4989, 0.4989, 0.5003], PeriodicSite: Cl (0.0, 4.462, 5.747) [0.5395, 0.5395, 0.9983], PeriodicSite: Cl (2.233, 2.3, 3.137) [0.5549, 0.001159, 0.545], PeriodicSite: Cl (-2.233, 2.3, 3.137) [0.001159, 0.5549, 0.545]]",190.93686574017815,"[Element In, Element Pb, Element Cl, Element Cl, Element Cl]",False,False,-1.3670909019999997,0.01772517362500059,2.9011
1232,mp,mp-5229.cif,Sr1 Ti1 O3,SrTiO3,Pm-3m,3.91270131,3.91270131,3.91270131,90.0,90.0,90.0,"(True, True, True)","[PeriodicSite: Sr (0.0, 0.0, 0.0) [-0.0, -0.0, -0.0], PeriodicSite: Ti (1.956, 1.956, 1.956) [0.5, 0.5, 0.5], PeriodicSite: O (1.956, 0.0, 1.956) [0.5, -0.0, 0.5], PeriodicSite: O (1.956, 1.956, 0.0) [0.5, 0.5, -0.0], PeriodicSite: O (0.0, 1.956, 1.956) [-0.0, 0.5, 0.5]]",59.90045030664282,"[Element Sr, Element Ti, Element O, Element O, Element O]",False,False,-3.55212058125,0.000892013999999719,1.7719999999999998
1233,mp,mp-4170.cif,Na1 Ta1 O3,NaTaO3,Pm-3m,3.9478540636650945,3.947854129965417,3.947865,90.0,90.0,90.00441199601983,"(True, True, True)","[PeriodicSite: Na (0.0, 0.0, 0.0) [0.0, 0.0, 0.0], PeriodicSite: Ta (1.973, 1.974, 1.974) [0.5, 0.5, 0.5], PeriodicSite: O (1.974, 0.0003545, 1.974) [0.5, 0.0, 0.5], PeriodicSite: O (-0.0005065, 1.974, 1.974) [0.0, 0.5, 0.5], PeriodicSite: O (1.973, 1.974, 0.0) [0.5, 0.5, 0.0]]",61.52965494459861,"[Element Na, Element Ta, Element O, Element O, Element O]",False,False,-3.054823912560346,0.014600839500007012,2.2603
1234,mp,mp-998344.cif,Cs1 Ag1 Br3,CsAgBr3,P1,5.494832831765767,5.497825357722723,5.494481653435472,89.97403466928844,89.94622685158929,89.94686602698708,"(True, True, True)","[PeriodicSite: Cs (-0.005822, -5.462, -0.01087) [0.994, 0.000431, 0.001464], PeriodicSite: Ag (-2.747, -2.665, -2.724) [0.4847, 0.4992, 0.4953], PeriodicSite: Br (-5.496, -2.679, -2.721) [0.487, 0.9993, 0.4947], PeriodicSite: Br (-2.769, -5.414, -2.767) [0.9849, 0.5029, 0.503], PeriodicSite: Br (-2.742, -2.692, -5.472) [0.4894, 0.4982, 0.9955]]",165.98610336405272,"[Element Cs, Element Ag, Element Br, Element Br, Element Br]",False,False,-1.2919883329195403,1.9793999999961898e-05,0.0
1235,mp,mp-976258.cif,Eu1 Pt1 O3,EuPtO3,Pm-3m,4.066685,4.066685,4.066685,90.0,90.0,90.0,"(True, True, True)","[PeriodicSite: Eu (2.033, 2.033, 2.033) [0.5, 0.5, 0.5], PeriodicSite: Pt (0.0, 0.0, 0.0) [0.0, 0.0, 0.0], PeriodicSite: O (0.0, 0.0, 2.033) [0.0, 0.0, 0.5], PeriodicSite: O (0.0, 2.033, 0.0) [0.0, 0.5, 0.0], PeriodicSite: O (2.033, 0.0, 0.0) [0.5, 0.0, 0.0]]",67.25453921150796,"[Element Eu, Element Pt, Element O, Element O, Element O]",False,True,-1.7501921892500008,0.3726271945937505,0.0
1236,mp,mp-7375.cif,K1 Nb1 O3,KNbO3,R3m,4.049923854879114,4.0499238731574305,4.0499247414557855,89.83687109964886,89.83687925054527,89.83686205811088,"(True, True, True)","[PeriodicSite: K (0.05386, 0.05369, 0.05404) [0.01326, 0.01326, 0.01326], PeriodicSite: Nb (2.043, 2.037, 2.05) [0.5031, 0.5031, 0.5031], PeriodicSite: O (0.1322, 2.144, 2.151) [0.03114, 0.5295, 0.5295], PeriodicSite: O (2.151, 2.144, 0.1391) [0.5295, 0.5295, 0.03114], PeriodicSite: O (2.145, 0.1254, 2.151) [0.5295, 0.03114, 0.5295]]",66.42558683114699,"[Element K, Element Nb, Element O, Element O, Element O]",True,False,-2.85708521185,0.0,2.2934
1237,mp,mp-971700.cif,Zn1 Au1 O3,ZnAuO3,Pm-3m,3.934248,3.934248,3.934248,90.0,90.0,90.0,"(True, True, True)","[PeriodicSite: Zn (1.967, 1.967, 1.967) [0.5, 0.5, 0.5], PeriodicSite: Au (0.0, 0.0, 0.0) [0.0, 0.0, 0.0], PeriodicSite: O (1.967, 1.967, 0.0) [0.5, 0.5, 0.0], PeriodicSite: O (1.967, 0.0, 1.967) [0.5, 0.0, 0.5], PeriodicSite: O (0.0, 1.967, 1.967) [0.0, 0.5, 0.5]]",60.89549963874947,"[Element Zn, Element Au, Element O, Element O, Element O]",False,True,-0.1547554652499997,0.7911670241249995,0.0
1238,mp,mp-972184.cif,V1 Pt1 O3,VPtO3,Pm-3m,3.81334,3.81334,3.81334,90.0,90.0,90.0,"(True, True, True)","[PeriodicSite: V (0.0, 0.0, 0.0) [0.0, 0.0, 0.0], PeriodicSite: Pt (1.907, 1.907, 1.907) [0.5, 0.5, 0.5], PeriodicSite: O (0.0, 0.0, 1.907) [0.0, 0.0, 0.5], PeriodicSite: O (0.0, 1.907, 0.0) [0.0, 0.5, 0.0], PeriodicSite: O (1.907, 0.0, 0.0) [0.5, 0.0, 0.0]]",55.45191986776771,"[Element V, Element Pt, Element O, Element O, Element O]",False,True,-0.9570427752500009,0.8212599774999978,0.0
1239,mp,mp-9040.cif,Ca3 Au1 N1,Ca3AuN,Pm-3m,4.844971,4.844971,4.844971,90.0,90.0,90.0,"(True, True, True)","[PeriodicSite: Ca (2.422, 0.0, 2.422) [0.5, 0.0, 0.5], PeriodicSite: Ca (0.0, 2.422, 2.422) [0.0, 0.5, 0.5], PeriodicSite: Ca (2.422, 2.422, 0.0) [0.5, 0.5, 0.0], PeriodicSite: Au (0.0, 0.0, 0.0) [0.0, 0.0, 0.0], PeriodicSite: N (2.422, 2.422, 2.422) [0.5, 0.5, 0.5]]",113.72960889704892,"[Element Ca, Element Ca, Element Ca, Element Au, Element N]",False,False,-0.8294719830000006,0.020319659999998407,0.0
1240,mp,mp-3710.cif,Ho1 B1 Rh3,HoBRh3,Pm-3m,4.16588183,4.16588183,4.16588183,90.0,90.0,90.0,"(True, True, True)","[PeriodicSite: Ho (0.0, 0.0, 0.0) [-0.0, 0.0, -0.0], PeriodicSite: B (2.083, 2.083, 2.083) [0.5, 0.5, 0.5], PeriodicSite: Rh (0.0, 2.083, 2.083) [-0.0, 0.5, 0.5], PeriodicSite: Rh (2.083, 2.083, 0.0) [0.5, 0.5, -0.0], PeriodicSite: Rh (2.083, 0.0, 2.083) [0.5, 0.0, 0.5]]",72.29709375236472,"[Element Ho, Element B, Element Rh, Element Rh, Element Rh]",True,True,-0.8051893158333329,0.0,0.0
1241,mp,mp-20325.cif,Ti3 In1 C1,Ti3InC,Pm-3m,4.23556108,4.23556108,4.23556108,90.0,90.0,90.0,"(True, True, True)","[PeriodicSite: Ti (2.118, 2.118, 0.0) [0.5, 0.5, 0.0], PeriodicSite: Ti (2.118, 0.0, 2.118) [0.5, 0.0, 0.5], PeriodicSite: Ti (0.0, 2.118, 2.118) [0.0, 0.5, 0.5], PeriodicSite: In (0.0, 0.0, 0.0) [0.0, 0.0, 0.0], PeriodicSite: C (2.118, 2.118, 2.118) [0.5, 0.5, 0.5]]",75.98587116297644,"[Element Ti, Element Ti, Element Ti, Element In, Element C]",True,False,-0.5443639494999999,0.0,0.0
1242,mp,mp-676561.cif,Ag3 S1 I1,Ag3SI,R32,4.999040194127769,4.999040194127769,4.999040596322159,91.00785625233495,91.00785625233495,91.0078602895511,"(True, True, True)","[PeriodicSite: Ag (3.441, -3.009, 2.499) [0.922, 0.07803, 0.5], PeriodicSite: Ag (4.972, 1.505, 0.39) [0.5, 0.922, 0.07803], PeriodicSite: Ag (1.91, 1.505, 4.607) [0.07803, 0.5, 0.922], PeriodicSite: S (0.0, 0.0, 0.0) [0.0, 0.0, 0.0], PeriodicSite: I (3.441, 0.0, 2.499) [0.5, 0.5, 0.5]]",124.86936728848829,"[Element Ag, Element Ag, Element Ag, Element S, Element I]",False,False,-0.2662196846250001,0.06864652100000068,0.3330000000000002
1243,mp,mp-998352.cif,Ba1 Hf1 S3,BaHfS3,P1,5.009601493422406,5.011652012573199,5.012407,89.99594145768837,90.04371295617636,90.0068196634759,"(True, True, True)","[PeriodicSite: Ba (-4.998, -4.966, -4.979) [0.9914, 0.9974, 0.994], PeriodicSite: Hf (-2.496, -2.442, -2.48) [0.4875, 0.498, 0.4951], PeriodicSite: S (-0.0005325, -2.433, -2.491) [0.4856, 0.000164, 0.4973], PeriodicSite: S (-2.528, -4.946, -2.528) [0.9873, 0.5046, 0.5051], PeriodicSite: S (-2.505, -2.446, -5.003) [0.4882, 0.4999, 0.9984]]",125.84335405165709,"[Element Ba, Element Hf, Element S, Element S, Element S]",False,False,-2.111991445875,0.02835506050000003,0.8438999999999997
1244,mp,mp-976763.cif,Ni1 As1 O3,NiAsO3,Pm-3m,3.696375,3.696375,3.696375,90.0,90.0,90.0,"(True, True, True)","[PeriodicSite: Ni (1.848, 1.848, 1.848) [0.5, 0.5, 0.5], PeriodicSite: As (0.0, 0.0, 0.0) [0.0, 0.0, 0.0], PeriodicSite: O (1.848, 1.848, 0.0) [0.5, 0.5, 0.0], PeriodicSite: O (1.848, 0.0, 1.848) [0.5, 0.0, 0.5], PeriodicSite: O (0.0, 1.848, 1.848) [0.0, 0.5, 0.5]]",50.50426706330274,"[Element Ni, Element As, Element O, Element O, Element O]",False,True,-0.5275916522500005,1.0092457869999993,0.0
1245,mp,mp-975346.cif,Rb1 Mn1 O3,RbMnO3,Pm-3m,4.039265,4.039265,4.039265,90.0,90.0,90.0,"(True, True, True)","[PeriodicSite: Rb (0.0, 0.0, 0.0) [0.0, 0.0, 0.0], PeriodicSite: Mn (2.02, 2.02, 2.02) [0.5, 0.5, 0.5], PeriodicSite: O (2.02, 2.02, 0.0) [0.5, 0.5, 0.0], PeriodicSite: O (2.02, 0.0, 2.02) [0.5, 0.0, 0.5], PeriodicSite: O (0.0, 2.02, 2.02) [0.0, 0.5, 0.5]]",65.90328141912995,"[Element Rb, Element Mn, Element O, Element O, Element O]",False,True,-1.378851534336207,0.37963623908333055,0.0
1246,mp,mp-6952.cif,Rb1 Yb1 F3,RbYbF3,Pm-3m,4.35777843,4.35777843,4.35777843,90.0,90.0,90.0,"(True, True, True)","[PeriodicSite: Rb (0.0, 0.0, 0.0) [0.0, -0.0, -0.0], PeriodicSite: Yb (2.179, 2.179, 2.179) [0.5, 0.5, 0.5], PeriodicSite: F (0.0, 2.179, 2.179) [-0.0, 0.5, 0.5], PeriodicSite: F (2.179, 0.0, 2.179) [0.5, -0.0, 0.5], PeriodicSite: F (2.179, 2.179, 0.0) [0.5, 0.5, -0.0]]",82.75522707250202,"[Element Rb, Element Yb, Element F, Element F, Element F]",True,False,-3.894821423,0.0,6.5181000000000004
1247,mp,mp-8397.cif,Cs1 Sr1 F3,CsSrF3,Pm-3m,4.76324701,4.76324701,4.76324701,90.0,90.0,90.0,"(True, True, True)","[PeriodicSite: Cs (0.0, 0.0, 0.0) [0.0, -0.0, -0.0], PeriodicSite: Sr (2.382, 2.382, 2.382) [0.5, 0.5, 0.5], PeriodicSite: F (0.0, 2.382, 2.382) [-0.0, 0.5, 0.5], PeriodicSite: F (2.382, 0.0, 2.382) [0.5, -0.0, 0.5], PeriodicSite: F (2.382, 2.382, 0.0) [0.5, 0.5, -0.0]]",108.0710349506573,"[Element Cs, Element Sr, Element F, Element F, Element F]",False,False,-3.67316985841954,0.003398826000000632,6.1846
1248,mp,mp-975361.cif,Rb1 Er1 O3,RbErO3,Pm-3m,4.494243,4.494243,4.494243,90.0,90.0,90.0,"(True, True, True)","[PeriodicSite: Rb (0.0, 0.0, 0.0) [0.0, 0.0, 0.0], PeriodicSite: Er (2.247, 2.247, 2.247) [0.5, 0.5, 0.5], PeriodicSite: O (2.247, 2.247, 0.0) [0.5, 0.5, 0.0], PeriodicSite: O (2.247, 0.0, 2.247) [0.5, 0.0, 0.5], PeriodicSite: O (0.0, 2.247, 2.247) [0.0, 0.5, 0.5]]",90.77570949035696,"[Element Rb, Element Er, Element O, Element O, Element O]",False,True,-2.31937023475,0.2482169909999996,0.0
1249,mp,mp-22246.cif,Eu1 Ti1 O3,EuTiO3,Pm-3m,3.9038778,3.90388695,3.9038778,90.0,90.0,90.0,"(True, True, True)","[PeriodicSite: Eu (0.0, 0.0, 0.0) [0.0, -0.0, 0.0], PeriodicSite: Ti (1.952, 1.952, 1.952) [0.5, 0.5, 0.5], PeriodicSite: O (0.0, 1.952, 1.952) [-0.0, 0.5, 0.5], PeriodicSite: O (1.952, 0.0, 1.952) [0.5, -0.0, 0.5], PeriodicSite: O (1.952, 1.952, 0.0) [0.5, 0.5, -0.0]]",59.49625945750218,"[Element Eu, Element Ti, Element O, Element O, Element O]",False,True,-3.5563691614166673,0.009138211500005156,0.0
1250,mp,mp-975299.cif,Rb1 In1 O3,RbInO3,Pm-3m,4.354854,4.354854,4.354854,90.0,90.0,90.0,"(True, True, True)","[PeriodicSite: Rb (0.0, 0.0, 0.0) [0.0, 0.0, 0.0], PeriodicSite: In (2.177, 2.177, 2.177) [0.5, 0.5, 0.5], PeriodicSite: O (2.177, 2.177, 0.0) [0.5, 0.5, 0.0], PeriodicSite: O (2.177, 0.0, 2.177) [0.5, 0.0, 0.5], PeriodicSite: O (0.0, 2.177, 2.177) [0.0, 0.5, 0.5]]",82.5887320345404,"[Element Rb, Element In, Element O, Element O, Element O]",False,True,-1.2536740327499998,0.2932204476666751,0.0
1251,mp,mp-1226648.cif,Ce1 Al3 Pt1,CeAl3Pt,I-4m2,6.278851231922205,6.278851231922205,6.278851231922205,141.40997204204623,141.40997204204623,55.7185829810156,"(True, True, True)","[PeriodicSite: Ce (0.0, 0.0, 0.0) [0.0, 0.0, 0.0], PeriodicSite: Al (0.0, 0.0, 6.822) [0.6145, 0.6145, 0.0], PeriodicSite: Al (0.0, 0.0, 4.28) [0.3855, 0.3855, 0.0], PeriodicSite: Al (2.22e-16, 2.075, 2.776) [0.75, 0.25, 0.5], PeriodicSite: Pt (2.075, 2.22e-16, 2.776) [0.25, 0.75, 0.5]]",95.57972916432833,"[Element Ce, Element Al, Element Al, Element Al, Element Pt]",False,True,-0.7043877509999994,0.0883380313333415,0.0
1252,mp,mp-3686.cif,Yb1 B1 Rh3,YbBRh3,Pm-3m,4.12849121,4.12849121,4.12849121,90.0,90.0,90.0,"(True, True, True)","[PeriodicSite: Yb (0.0, 0.0, 0.0) [0.0, -0.0, -0.0], PeriodicSite: B (2.064, 2.064, 2.064) [0.5, 0.5, 0.5], PeriodicSite: Rh (0.0, 2.064, 2.064) [0.0, 0.5, 0.5], PeriodicSite: Rh (2.064, 2.064, 0.0) [0.5, 0.5, -0.0], PeriodicSite: Rh (2.064, 0.0, 2.064) [0.5, -0.0, 0.5]]",70.36781936129393,"[Element Yb, Element B, Element Rh, Element Rh, Element Rh]",True,False,-0.6106245318333329,0.0,0.0
1253,mp,mp-977184.cif,Np1 Tc1 O3,NpTcO3,Pm-3m,3.974724,3.974724,3.974724,90.0,90.0,90.0,"(True, True, True)","[PeriodicSite: Np (0.0, 0.0, 0.0) [0.0, 0.0, 0.0], PeriodicSite: Tc (1.987, 1.987, 1.987) [0.5, 0.5, 0.5], PeriodicSite: O (1.987, 1.987, 0.0) [0.5, 0.5, 0.0], PeriodicSite: O (1.987, 0.0, 1.987) [0.5, 0.0, 0.5], PeriodicSite: O (0.0, 1.987, 1.987) [0.0, 0.5, 0.5]]",62.79440236587778,"[Element Np, Element Tc, Element O, Element O, Element O]",False,True,-2.041626151999999,0.6848691417500046,0.0
1254,mp,mp-998230.cif,Li1 Sn1 Cl3,LiSnCl3,P1,5.071729818916347,5.078612021443952,5.088723776934295,87.35959264165349,87.3920999849445,87.48050393854061,"(True, True, True)","[PeriodicSite: Li (0.5931, 0.6211, 0.6329) [0.1122, 0.1235, 0.1124], PeriodicSite: Sn (2.54, 2.483, 2.715) [0.482, 0.494, 0.4838], PeriodicSite: Cl (0.8347, 3.224, 0.9459) [0.1379, 0.6374, 0.1455], PeriodicSite: Cl (0.7447, 0.7374, 3.269) [0.1429, 0.1499, 0.6275], PeriodicSite: Cl (3.198, 0.7766, 0.9142) [0.6251, 0.1552, 0.1408]]",130.6821218175454,"[Element Li, Element Sn, Element Cl, Element Cl, Element Cl]",False,False,-1.6771398216666662,0.018986533499998792,3.9416
1255,mp,mp-973930.cif,Np1 Be1 O3,NpBeO3,Pm-3m,3.569773,3.569773,3.569773,90.0,90.0,90.0,"(True, True, True)","[PeriodicSite: Np (0.0, 0.0, 0.0) [0.0, 0.0, 0.0], PeriodicSite: Be (1.785, 1.785, 1.785) [0.5, 0.5, 0.5], PeriodicSite: O (1.785, 1.785, 0.0) [0.5, 0.5, 0.0], PeriodicSite: O (1.785, 0.0, 1.785) [0.5, 0.0, 0.5], PeriodicSite: O (0.0, 1.785, 1.785) [0.0, 0.5, 0.5]]",45.490614274963896,"[Element Np, Element Be, Element O, Element O, Element O]",False,True,-2.970210454,0.43241775099999913,0.0
1256,mp,mp-1217576.cif,Tb1 Bi1 Te3,TbBiTe3,R3m,10.8472598886717,10.8472598886717,10.847260604708683,23.485968932077686,23.485968932077686,23.485972924212856,"(True, True, True)","[PeriodicSite: Tb (18.89, 0.0, 2.283) [0.6014, 0.6014, 0.6014], PeriodicSite: Bi (12.54, 0.0, 1.516) [0.3993, 0.3993, 0.3993], PeriodicSite: Te (31.29, 0.0, 3.782) [0.9963, 0.9963, 0.9963], PeriodicSite: Te (24.69, 0.0, 2.985) [0.7863, 0.7863, 0.7863], PeriodicSite: Te (6.8, 0.0, 0.822) [0.2165, 0.2165, 0.2165]]",178.0067493633736,"[Element Tb, Element Bi, Element Te, Element Te, Element Te]",False,False,-1.0627362000000005,0.027055498999997596,1.0380000000000003
1257,mp,mp-1224339.cif,Ge1 Sb1 Te3,GeSbTe3,R3m,10.16588788229518,10.16588788229518,10.165888143268152,23.88331071028311,23.88331071028311,23.883309860925262,"(True, True, True)","[PeriodicSite: Ge (11.82, 0.0, 1.454) [0.4022, 0.4022, 0.4022], PeriodicSite: Sb (17.7, 0.0, 2.178) [0.6023, 0.6023, 0.6023], PeriodicSite: Te (0.0482, 0.0, 0.00593) [0.00164, 0.00164, 0.00164], PeriodicSite: Te (6.097, 0.0, 0.7501) [0.2074, 0.2074, 0.2074], PeriodicSite: Te (23.12, 0.0, 2.844) [0.7865, 0.7865, 0.7865]]",151.30348417268974,"[Element Ge, Element Sb, Element Te, Element Te, Element Te]",False,False,-0.32836106900000034,0.02720295199999967,0.0
1258,mp,mp-5663.cif,Ba1 Ce1 O3,BaCeO3,Pm-3m,4.474193,4.474193,4.474193,90.0,90.0,90.0,"(True, True, True)","[PeriodicSite: Ba (2.237, 2.237, 2.237) [0.5, 0.5, 0.5], PeriodicSite: Ce (0.0, 0.0, 0.0) [0.0, 0.0, 0.0], PeriodicSite: O (0.0, 2.237, 0.0) [0.0, 0.5, 0.0], PeriodicSite: O (0.0, 0.0, 2.237) [0.0, 0.0, 0.5], PeriodicSite: O (2.237, 0.0, 0.0) [0.5, 0.0, 0.0]]",89.56619857936725,"[Element Ba, Element Ce, Element O, Element O, Element O]",False,False,-3.5510383762500006,0.040333895999999925,2.2990000000000004
1259,mp,mp-755018.cif,Rb1 Ta1 O3,RbTaO3,R3m,4.091552946670737,4.091552946670737,4.091552424737217,89.91297527556931,89.91297527556931,89.91298190949828,"(True, True, True)","[PeriodicSite: Rb (5.667, 0.0, 3.998) [0.9772, 0.9772, 0.9772], PeriodicSite: Ta (2.833, 0.0, 1.998) [0.4884, 0.4884, 0.4884], PeriodicSite: O (4.145, 1.427, 1.916) [0.4682, 0.962, 0.4682], PeriodicSite: O (2.72, 0.0, 3.936) [0.4682, 0.4682, 0.962], PeriodicSite: O (4.145, -1.427, 1.916) [0.962, 0.4682, 0.4682]]",68.49564662455086,"[Element Rb, Element Ta, Element O, Element O, Element O]",False,False,-2.9823583587499995,0.052566979500015876,2.5106
1260,mp,mp-21392.cif,Tb3 In1 C1,Tb3InC,Pm-3m,5.609421,5.609421,5.609421,90.0,90.0,90.0,"(True, True, True)","[PeriodicSite: Tb (2.805, 0.0, 2.805) [0.5, 0.0, 0.5], PeriodicSite: Tb (2.805, 2.805, 0.0) [0.5, 0.5, 0.0], PeriodicSite: Tb (0.0, 2.805, 2.805) [0.0, 0.5, 0.5], PeriodicSite: In (2.805, 2.805, 2.805) [0.5, 0.5, 0.5], PeriodicSite: C (0.0, 0.0, 0.0) [0.0, 0.0, 0.0]]",176.50381960421194,"[Element Tb, Element Tb, Element Tb, Element In, Element C]",False,False,1.5911136665,1.9188017671666655,0.0