,provider,id,Full_Formula,formula,space_group,a_lattice_param,b_lattice_param,c_lattice_param,aplha_degree,beta_degree,gamma_degree,pbc,sits,volume,species_at_sites,is_stable,is_magnetic,formation_energy,energy_above_hull,band_gap
1589,mp,mp-561947.cif,Cs1 Hg1 F3,CsHgF3,Pm-3m,4.59544972,4.59544972,4.59544972,90.0,90.0,90.0,"(True, True, True)","[PeriodicSite: Cs (0.0, 0.0, 0.0) [-0.0, 0.0, 0.0], PeriodicSite: Hg (2.298, 2.298, 2.298) [0.5, 0.5, 0.5], PeriodicSite: F (0.0, 2.298, 2.298) [0.0, 0.5, 0.5], PeriodicSite: F (2.298, 2.298, 0.0) [0.5, 0.5, 0.0], PeriodicSite: F (2.298, 0.0, 2.298) [0.5, 0.0, 0.5]]",97.04743386104975,"[Element Cs, Element Hg, Element F, Element F, Element F]",True,False,-2.2519840180862065,0.0,0.7228
1590,mp,mp-1224813.cif,Ga1 Ni3 As1,GaNi3As,P-6m2,3.9541863052320894,3.9541863052320894,4.881622,90.0,90.0,119.99746190278962,"(True, True, True)","[PeriodicSite: Ga (-1.977, 1.141, -3.661) [0.3333, 0.6667, 0.75], PeriodicSite: Ni (-1.977, 3.424, -2.415) [1e-06, 1.0, 0.4948], PeriodicSite: Ni (-1.977, 3.424, -0.02561) [1e-06, 1.0, 0.005247], PeriodicSite: Ni (-1.977, -1.142, -3.661) [0.6667, 0.3333, 0.75], PeriodicSite: As (-1.977, -1.142, -1.22) [0.6667, 0.3333, 0.25]]",66.10284344908179,"[Element Ga, Element Ni, Element Ni, Element Ni, Element As]",False,False,-0.2765761244999993,0.06805563660417668,0.0
1591,mp,mp-1225152.cif,Eu1 Ga3 Cu1,EuGa3Cu,I-4m2,6.089450217718445,6.089450217718445,6.089450217718445,139.64844254926027,139.64844254926027,58.38747938077382,"(True, True, True)","[PeriodicSite: Eu (0.0, 0.0, 0.0) [0.0, 0.0, 0.0], PeriodicSite: Ga (0.0, 0.0, 6.574) [0.6183, 0.6183, 0.0], PeriodicSite: Ga (0.0, 0.0, 4.058) [0.3817, 0.3817, -0.0], PeriodicSite: Ga (0.0, 2.1, 2.658) [0.75, 0.25, 0.5], PeriodicSite: Cu (2.1, 0.0, 2.658) [0.25, 0.75, 0.5]]",93.79641197329519,"[Element Eu, Element Ga, Element Ga, Element Ga, Element Cu]",True,True,-0.41794886449999924,0.0,0.0
1592,mp,mp-19847.cif,Tm3 In1 N1,Tm3InN,Pm-3m,4.70132412,4.70132412,4.70132412,90.0,90.0,90.0,"(True, True, True)","[PeriodicSite: Tm (2.351, 2.351, 0.0) [0.5, 0.5, 0.0], PeriodicSite: Tm (0.0, 2.351, 2.351) [0.0, 0.5, 0.5], PeriodicSite: Tm (2.351, 0.0, 2.351) [0.5, 0.0, 0.5], PeriodicSite: In (0.0, 0.0, 0.0) [0.0, 0.0, 0.0], PeriodicSite: N (2.351, 2.351, 2.351) [0.5, 0.5, 0.5]]",103.91077415616378,"[Element Tm, Element Tm, Element Tm, Element In, Element N]",True,False,-1.0908168429999996,0.0,0.0
1593,mp,mp-1395974.cif,Al1 V1 O3,AlVO3,Pm-3m,3.822983,3.822983,3.822983,90.0,90.0,90.0,"(True, True, True)","[PeriodicSite: Al (0.0, 0.0, 0.0) [0.0, 0.0, 0.0], PeriodicSite: V (1.911, 1.911, 1.911) [0.5, 0.5, 0.5], PeriodicSite: O (1.911, 1.911, 0.0) [0.5, 0.5, 0.0], PeriodicSite: O (1.911, 0.0, 1.911) [0.5, 0.0, 0.5], PeriodicSite: O (0.0, 1.911, 1.911) [0.0, 0.5, 0.5]]",55.87365738853553,"[Element Al, Element V, Element O, Element O, Element O]",False,True,-1.7527390992500016,1.2285736276249999,0.0
1594,mp,mp-4346.cif,Sr1 Ru1 O3,SrRuO3,Pm-3m,3.987275,3.987275,3.987275,90.0,90.0,90.0,"(True, True, True)","[PeriodicSite: Sr (1.994, 1.994, 1.994) [0.5, 0.5, 0.5], PeriodicSite: Ru (0.0, 0.0, 0.0) [0.0, 0.0, 0.0], PeriodicSite: O (1.994, 0.0, 0.0) [0.5, 0.0, 0.0], PeriodicSite: O (0.0, 0.0, 1.994) [0.0, 0.0, 0.5], PeriodicSite: O (0.0, 1.994, 0.0) [0.0, 0.5, 0.0]]",63.39114104699642,"[Element Sr, Element Ru, Element O, Element O, Element O]",False,True,-2.1506229425833334,0.0413389979999943,0.0
1595,mp,mp-20427.cif,Pr1 Co1 O3,PrCoO3,Pm-3m,3.818819,3.818819,3.818819,90.0,90.0,90.0,"(True, True, True)","[PeriodicSite: Pr (0.0, 0.0, 0.0) [0.0, 0.0, 0.0], PeriodicSite: Co (1.909, 1.909, 1.909) [0.5, 0.5, 0.5], PeriodicSite: O (0.0, 1.909, 1.909) [0.0, 0.5, 0.5], PeriodicSite: O (1.909, 0.0, 1.909) [0.5, 0.0, 0.5], PeriodicSite: O (1.909, 1.909, 0.0) [0.5, 0.5, 0.0]]",55.69128310911385,"[Element Pr, Element Co, Element O, Element O, Element O]",False,True,-2.38977334325,0.11634092799999962,0.0
1596,mp,mp-22793.cif,Al1 Fe3 C1,AlFe3C,Pm-3m,3.78948866,3.78990736,3.78993006,90.0,90.0,90.0,"(True, True, True)","[PeriodicSite: Al (0.0, 0.0, 0.0) [-0.0, 0.0, -0.0], PeriodicSite: Fe (0.0, 1.895, 1.895) [-0.0, 0.5, 0.5], PeriodicSite: Fe (1.895, 1.895, 0.0) [0.5, 0.5, 0.0], PeriodicSite: Fe (1.895, 0.0, 1.895) [0.5, -0.0, 0.5], PeriodicSite: C (1.895, 1.895, 1.895) [0.5, 0.5, 0.5]]",54.43025908535758,"[Element Al, Element Fe, Element Fe, Element Fe, Element C]",True,True,-0.16021290149999884,0.0,0.0
1597,mp,mp-1421511.cif,Al1 Sb1 O3,AlSbO3,Pm-3m,4.051755,4.051755,4.051755,90.0,90.0,90.0,"(True, True, True)","[PeriodicSite: Al (0.0, 0.0, 0.0) [0.0, 0.0, 0.0], PeriodicSite: Sb (2.026, 2.026, 2.026) [0.5, 0.5, 0.5], PeriodicSite: O (2.026, 2.026, 0.0) [0.5, 0.5, 0.0], PeriodicSite: O (2.026, 0.0, 2.026) [0.5, 0.0, 0.5], PeriodicSite: O (0.0, 2.026, 2.026) [0.0, 0.5, 0.5]]",66.5165215902092,"[Element Al, Element Sb, Element O, Element O, Element O]",False,False,-1.27139573325,1.3185118980000041,0.0
1598,mp,mp-989699.cif,La1 W1 N3,LaWN3,Cm,4.656111761959435,4.656111761959435,3.292368,90.0,90.0,119.99999661764195,"(True, True, True)","[PeriodicSite: La (0.0, 4.445, 3.143) [0.9546, 0.9546, 0.9546], PeriodicSite: W (0.0, 2.091, 1.479) [0.4492, 0.4492, 0.4492], PeriodicSite: N (-2.052, 3.066, 1.33) [0.4041, 0.9131, 0.4041], PeriodicSite: N (0.0, 1.881, 3.006) [0.4041, 0.4041, 0.9131], PeriodicSite: N (2.052, 3.066, 1.33) [0.9131, 0.4041, 0.4041]]",61.81385242198857,"[Element La, Element W, Element N, Element N, Element N]",False,False,1.2237525660000004,2.446128064,0.0
1599,mp,mp-973892.cif,Eu1 Al1 O3,EuAlO3,Pm-3m,3.768155,3.768155,3.768155,90.0,90.0,90.0,"(True, True, True)","[PeriodicSite: Eu (1.884, 1.884, 1.884) [0.5, 0.5, 0.5], PeriodicSite: Al (0.0, 0.0, 0.0) [0.0, 0.0, 0.0], PeriodicSite: O (0.0, 0.0, 1.884) [0.0, 0.0, 0.5], PeriodicSite: O (1.884, 0.0, 0.0) [0.5, 0.0, 0.0], PeriodicSite: O (0.0, 1.884, 0.0) [0.0, 0.5, 0.0]]",53.50400309174233,"[Element Eu, Element Al, Element O, Element O, Element O]",False,True,-3.322450747250001,0.00891442050000002,0.0
1600,mp,mp-5893.cif,Ca1 Si1 O3,CaSiO3,Pm-3m,3.607964,3.607964,3.607964,90.0,90.0,90.0,"(True, True, True)","[PeriodicSite: Ca (1.804, 1.804, 1.804) [0.5, 0.5, 0.5], PeriodicSite: Si (0.0, 0.0, 0.0) [0.0, 0.0, 0.0], PeriodicSite: O (0.0, 1.804, 0.0) [0.0, 0.5, 0.0], PeriodicSite: O (0.0, 0.0, 1.804) [0.0, 0.0, 0.5], PeriodicSite: O (1.804, 0.0, 0.0) [0.5, 0.0, 0.0]]",46.96632581831585,"[Element Ca, Element Si, Element O, Element O, Element O]",False,False,-3.204593773250001,0.2442035416666677,3.4579000000000004
1601,mp,mp-989613.cif,Ti1 P1 N3,TiPN3,Amm2,5.054459861413582,5.054459861413582,2.83485,90.0,90.0,116.15006518852611,"(True, True, True)","[PeriodicSite: Ti (2.673, 0.6774, 0.0) [0.421, 0.5789, 0.0], PeriodicSite: P (2.673, 3.651, 1.417) [0.0745, 0.9255, 0.5], PeriodicSite: N (3.985, 0.23, 1.417) [0.7186, 0.7722, 0.5], PeriodicSite: N (2.673, 2.693, 0.0) [0.1861, 0.8139, 0.0], PeriodicSite: N (1.361, 0.23, 1.417) [0.2278, 0.2814, 0.5]]",65.01044611865268,"[Element Ti, Element P, Element N, Element N, Element N]",False,False,-1.0077674043333318,0.030168741333334026,0.5281999999999996
1602,mp,mp-998297.cif,Cs1 Sr1 Br3,CsSrBr3,P1,5.968694842618793,5.973740096539098,5.969721983249828,89.98402262961305,89.94558956072584,89.94529417150775,"(True, True, True)","[PeriodicSite: Cs (-5.956, -5.933, -5.954) [0.9953, 0.9973, 0.9937], PeriodicSite: Sr (-2.987, -2.902, -2.977) [0.4869, 0.5001, 0.4969], PeriodicSite: Br (-0.0006157, -2.885, -2.957) [0.484, 0.0002284, 0.4942], PeriodicSite: Br (-3.021, -5.885, -3.05) [0.9866, 0.5054, 0.5079], PeriodicSite: Br (-2.965, -2.899, -5.965) [0.4871, 0.4969, 0.9974]]",212.8528132518763,"[Element Cs, Element Sr, Element Br, Element Br, Element Br]",False,False,-2.38151848291954,0.019429670000000065,4.1683
1603,mp,mp-1223697.cif,In1 Ni3 Sb1,InNi3Sb,P-6m2,4.181508915065111,4.181508915065111,5.225062,90.0,90.0,120.01200712445541,"(True, True, True)","[PeriodicSite: In (-2.09, -1.207, -1.306) [0.6666, 0.3334, 0.25], PeriodicSite: Ni (-2.09, 3.621, -2.639) [2.3e-05, 1.0, 0.5051], PeriodicSite: Ni (-2.09, 3.621, -5.199) [2.3e-05, 1.0, 0.9949], PeriodicSite: Ni (-2.09, -1.207, -3.919) [0.6667, 0.3333, 0.75], PeriodicSite: Sb (-2.09, 1.207, -3.919) [0.3333, 0.6667, 0.75]]",79.11076335560023,"[Element In, Element Ni, Element Ni, Element Ni, Element Sb]",False,False,-0.16089365799999983,0.06291715066666814,0.0
1604,mp,mp-28377.cif,Cs1 Ge1 I3,CsGeI3,Cm,8.706732698398408,6.128081833379224,6.065933977616616,92.17638736819829,135.86282611329156,86.96676119271079,"(True, True, True)","[PeriodicSite: Cs (-1.422, 2.417, 2.441) [0.08901, 0.5866, 0.0], PeriodicSite: Ge (3.865, 2.751, 2.912) [0.6274, 0.1341, 0.0], PeriodicSite: I (2.046, 4.204, 4.356) [0.5884, 0.5808, -0.0], PeriodicSite: I (-1.493, -1.74, 1.138) [0.08007, 0.09324, 0.4889], PeriodicSite: I (1.957, 0.00388, 3.143) [0.5912, 0.09324, 0.5111]]",225.06811678964056,"[Element Cs, Element Ge, Element I, Element I, Element I]",True,False,-1.102511392586207,0.0,0.9905000000000002
1605,mp,mp-22496.cif,Nd3 Tl1 N1,Nd3TlN,Pm-3m,5.833587,5.833587,5.833587,90.0,90.0,90.0,"(True, True, True)","[PeriodicSite: Nd (2.917, 0.0, 2.917) [0.5, 0.0, 0.5], PeriodicSite: Nd (0.0, 2.917, 2.917) [0.0, 0.5, 0.5], PeriodicSite: Nd (2.917, 2.917, 0.0) [0.5, 0.5, 0.0], PeriodicSite: Tl (2.917, 2.917, 2.917) [0.5, 0.5, 0.5], PeriodicSite: N (0.0, 0.0, 0.0) [0.0, 0.0, 0.0]]",198.52126663534415,"[Element Nd, Element Nd, Element Nd, Element Tl, Element N]",False,True,1.2700786518333331,2.0541159628333334,0.0
1606,mp,mp-22664.cif,Ho1 Rh3 C1,HoRh3C,Pm-3m,4.14152903,4.14152903,4.14152903,90.0,90.0,90.0,"(True, True, True)","[PeriodicSite: Ho (0.0, 0.0, 0.0) [-0.0, -0.0, -0.0], PeriodicSite: Rh (0.0, 2.071, 2.071) [-0.0, 0.5, 0.5], PeriodicSite: Rh (2.071, 2.071, 0.0) [0.5, 0.5, -0.0], PeriodicSite: Rh (2.071, 0.0, 2.071) [0.5, -0.0, 0.5], PeriodicSite: C (2.071, 2.071, 2.071) [0.5, 0.5, 0.5]]",71.03659392846342,"[Element Ho, Element Rh, Element Rh, Element Rh, Element C]",True,False,-0.5166087994999998,0.0,0.0
1607,mp,mp-754940.cif,Ba3 Si1 O1,Ba3SiO,Pm-3m,5.423827,5.423827,5.423827,90.0,90.0,90.0,"(True, True, True)","[PeriodicSite: Ba (0.0, 2.712, 2.712) [0.0, 0.5, 0.5], PeriodicSite: Ba (2.712, 0.0, 2.712) [0.5, 0.0, 0.5], PeriodicSite: Ba (2.712, 2.712, 0.0) [0.5, 0.5, 0.0], PeriodicSite: Si (0.0, 0.0, 0.0) [0.0, 0.0, 0.0], PeriodicSite: O (2.712, 2.712, 2.712) [0.5, 0.5, 0.5]]",159.55759664725554,"[Element Ba, Element Ba, Element Ba, Element Si, Element O]",False,False,-1.26554291375,0.051504253000000944,0.0
1608,mp,mp-18717.cif,Sr1 V1 O3,SrVO3,Pm-3m,3.900891,3.900891,3.900891,90.0,90.0,90.0,"(True, True, True)","[PeriodicSite: Sr (1.95, 1.95, 1.95) [0.5, 0.5, 0.5], PeriodicSite: V (0.0, 0.0, 0.0) [0.0, 0.0, 0.0], PeriodicSite: O (0.0, 1.95, 0.0) [0.0, 0.5, 0.0], PeriodicSite: O (0.0, 0.0, 1.95) [0.0, 0.0, 0.5], PeriodicSite: O (1.95, 0.0, 0.0) [0.5, 0.0, 0.0]]",59.35966561911505,"[Element Sr, Element V, Element O, Element O, Element O]",False,True,-2.880218058583334,0.0391016768602821,0.0
1609,mp,mp-19817.cif,Y3 In1 C1,Y3InC,Pm-3m,4.91830942,4.91830942,4.91830942,90.0,90.0,90.0,"(True, True, True)","[PeriodicSite: Y (2.459, 0.0, 2.459) [0.5, -0.0, 0.5], PeriodicSite: Y (0.0, 2.459, 2.459) [-0.0, 0.5, 0.5], PeriodicSite: Y (2.459, 2.459, 0.0) [0.5, 0.5, -0.0], PeriodicSite: In (0.0, 0.0, 0.0) [0.0, 0.0, 0.0], PeriodicSite: C (2.459, 2.459, 2.459) [0.5, 0.5, 0.5]]",118.97276161300869,"[Element Y, Element Y, Element Y, Element In, Element C]",True,False,-0.5320403534999997,0.0,0.0
1610,mp,mp-20590.cif,La3 In1 B1,La3InB,Pm-3m,5.328949,5.328949,5.328949,90.0,90.0,90.0,"(True, True, True)","[PeriodicSite: La (2.664, 0.0, 2.664) [0.5, 0.0, 0.5], PeriodicSite: La (2.664, 2.664, 0.0) [0.5, 0.5, 0.0], PeriodicSite: La (0.0, 2.664, 2.664) [0.0, 0.5, 0.5], PeriodicSite: In (0.0, 0.0, 0.0) [0.0, 0.0, 0.0], PeriodicSite: B (2.664, 2.664, 2.664) [0.5, 0.5, 0.5]]",151.32988139970902,"[Element La, Element La, Element La, Element In, Element B]",False,False,-0.17000225283333278,0.20274191399999975,0.0
1611,mp,mp-21031.cif,Pd3 Pb1 C1,Pd3PbC,Pm-3m,4.298945,4.298945,4.298945,90.0,90.0,90.0,"(True, True, True)","[PeriodicSite: Pd (0.0, 2.149, 2.149) [0.0, 0.5, 0.5], PeriodicSite: Pd (2.149, 2.149, 0.0) [0.5, 0.5, 0.0], PeriodicSite: Pd (2.149, 0.0, 2.149) [0.5, 0.0, 0.5], PeriodicSite: Pb (0.0, 0.0, 0.0) [0.0, 0.0, 0.0], PeriodicSite: C (2.149, 2.149, 2.149) [0.5, 0.5, 0.5]]",79.44849350684825,"[Element Pd, Element Pd, Element Pd, Element Pb, Element C]",False,False,0.19430850249999948,0.43425457249999866,0.0
1612,mp,mp-974505.cif,Re1 Te1 O3,ReTeO3,Pm-3m,4.005481,4.005481,4.005481,90.0,90.0,90.0,"(True, True, True)","[PeriodicSite: Re (2.003, 2.003, 2.003) [0.5, 0.5, 0.5], PeriodicSite: Te (0.0, 0.0, 0.0) [0.0, 0.0, 0.0], PeriodicSite: O (2.003, 2.003, 0.0) [0.5, 0.5, 0.0], PeriodicSite: O (2.003, 0.0, 2.003) [0.5, 0.0, 0.5], PeriodicSite: O (0.0, 2.003, 2.003) [0.0, 0.5, 0.5]]",64.26344866098869,"[Element Re, Element Te, Element O, Element O, Element O]",False,False,-0.9144448855833331,0.7946270986666706,0.0
1613,mp,mp-972827.cif,Si1 Bi1 O3,SiBiO3,Pm-3m,3.798666,3.798666,3.798666,90.0,90.0,90.0,"(True, True, True)","[PeriodicSite: Si (0.0, 0.0, 0.0) [0.0, 0.0, 0.0], PeriodicSite: Bi (1.899, 1.899, 1.899) [0.5, 0.5, 0.5], PeriodicSite: O (0.0, 0.0, 1.899) [0.0, 0.0, 0.5], PeriodicSite: O (0.0, 1.899, 0.0) [0.0, 0.5, 0.0], PeriodicSite: O (1.899, 0.0, 0.0) [0.5, 0.0, 0.0]]",54.81423140456447,"[Element Si, Element Bi, Element O, Element O, Element O]",False,False,-1.83099859325,0.717313176833339,0.0
1614,mp,mp-1219973.cif,Pr1 Ga3 Pt1,PrGa3Pt,I-4m2,6.144710442710552,6.144710442710552,6.144710442710552,139.82601515777407,139.82601515777407,58.11756520280302,"(True, True, True)","[PeriodicSite: Pr (0.0, 0.0, 0.0) [0.0, 0.0, -0.0], PeriodicSite: Ga (0.0, 0.0, 6.618) [0.6161, 0.6161, -0.0], PeriodicSite: Ga (0.0, 0.0, 4.124) [0.3839, 0.3839, 0.0], PeriodicSite: Ga (2.22e-16, 2.11, 2.686) [0.75, 0.25, 0.5], PeriodicSite: Pt (2.11, 2.22e-16, 2.686) [0.25, 0.75, 0.5]]",95.68732131600082,"[Element Pr, Element Ga, Element Ga, Element Ga, Element Pt]",True,False,-0.7259391414999996,0.0,0.0
1615,mp,mp-976775.cif,Na1 Mg1 O3,NaMgO3,Pm-3m,4.017664,4.017664,4.017664,90.0,90.0,90.0,"(True, True, True)","[PeriodicSite: Na (0.0, 0.0, 0.0) [0.0, 0.0, 0.0], PeriodicSite: Mg (2.009, 2.009, 2.009) [0.5, 0.5, 0.5], PeriodicSite: O (2.009, 2.009, 0.0) [0.5, 0.5, 0.0], PeriodicSite: O (2.009, 0.0, 2.009) [0.5, 0.0, 0.5], PeriodicSite: O (0.0, 2.009, 2.009) [0.0, 0.5, 0.5]]",64.85162171421845,"[Element Na, Element Mg, Element O, Element O, Element O]",False,True,-1.3971089625603454,0.3729545159999983,0.0
1616,mp,mp-19948.cif,Ce1 B1 Pd3,CeBPd3,Pm-3m,4.381105,4.381105,4.381105,90.0,90.0,90.0,"(True, True, True)","[PeriodicSite: Ce (0.0, 0.0, 0.0) [0.0, 0.0, 0.0], PeriodicSite: B (2.191, 2.191, 2.191) [0.5, 0.5, 0.5], PeriodicSite: Pd (0.0, 2.191, 2.191) [0.0, 0.5, 0.5], PeriodicSite: Pd (2.191, 2.191, 0.0) [0.5, 0.5, 0.0], PeriodicSite: Pd (2.191, 0.0, 2.191) [0.5, 0.0, 0.5]]",84.09128433161773,"[Element Ce, Element B, Element Pd, Element Pd, Element Pd]",False,True,-0.49731027283333307,0.20786606866666624,0.0
1617,mp,mp-637378.cif,Gd3 In1 N1,Gd3InN,Pm-3m,4.876704119658836,4.874577090401946,4.877545243849944,90.01681822144431,90.03453620652854,89.95861863968585,"(True, True, True)","[PeriodicSite: Gd (2.439, 4.875, 2.437) [0.5, 1.0, 0.5], PeriodicSite: Gd (4.877, 2.439, 2.437) [1.0, 0.5, 0.5], PeriodicSite: Gd (2.438, 2.437, 4.876) [0.5, 0.5, 1.0], PeriodicSite: In (2.043e-05, 1.195e-05, 2.784e-05) [4.19e-06, 2.45e-06, 5.71e-06], PeriodicSite: N (2.438, 2.438, 2.438) [0.5, 0.5, 0.5]]",115.9483160404297,"[Element Gd, Element Gd, Element Gd, Element In, Element N]",True,True,-1.0244582850000015,0.0,0.0
1618,mp,mp-865120.cif,Na1 Pa1 O3,NaPaO3,Pm-3m,4.32748724,4.32748724,4.32748724,90.0,90.0,90.0,"(True, True, True)","[PeriodicSite: Na (0.0, 0.0, 0.0) [0.0, -0.0, -0.0], PeriodicSite: Pa (2.164, 2.164, 2.164) [0.5, 0.5, 0.5], PeriodicSite: O (2.164, 2.164, 0.0) [0.5, 0.5, -0.0], PeriodicSite: O (2.164, 0.0, 2.164) [0.5, -0.0, 0.5], PeriodicSite: O (0.0, 2.164, 2.164) [-0.0, 0.5, 0.5]]",81.04148454461952,"[Element Na, Element Pa, Element O, Element O, Element O]",True,False,-3.451220428560346,0.0,2.952
1619,mp,mp-771055.cif,Eu1 Zr1 O3,EuZrO3,Pm-3m,4.197333,4.197333,4.197333,90.0,90.0,90.0,"(True, True, True)","[PeriodicSite: Eu (0.0, 0.0, 0.0) [0.0, 0.0, 0.0], PeriodicSite: Zr (2.099, 2.099, 2.099) [0.5, 0.5, 0.5], PeriodicSite: O (0.0, 2.099, 2.099) [0.0, 0.5, 0.5], PeriodicSite: O (2.099, 0.0, 2.099) [0.5, 0.0, 0.5], PeriodicSite: O (2.099, 2.099, 0.0) [0.5, 0.5, 0.0]]",73.94695196343135,"[Element Eu, Element Zr, Element O, Element O, Element O]",False,True,-3.55385709925,0.09331918650000048,0.3877000000000006
1620,mp,mp-8402.cif,Rb1 Mg1 F3,RbMgF3,Pm-3m,4.056934,4.056934,4.056934,90.0,90.0,90.0,"(True, True, True)","[PeriodicSite: Rb (0.0, 0.0, 0.0) [0.0, 0.0, 0.0], PeriodicSite: Mg (2.028, 2.028, 2.028) [0.5, 0.5, 0.5], PeriodicSite: F (0.0, 2.028, 2.028) [0.0, 0.5, 0.5], PeriodicSite: F (2.028, 0.0, 2.028) [0.5, 0.0, 0.5], PeriodicSite: F (2.028, 2.028, 0.0) [0.5, 0.5, 0.0]]",66.77191431471459,"[Element Rb, Element Mg, Element F, Element F, Element F]",False,False,-3.5073581950000006,0.0021546039999993383,6.938400000000001
1621,mp,mp-12725.cif,Nb1 Ag1 O3,NbAgO3,Pm-3m,4.023986,4.023986,4.023986,90.0,90.0,90.0,"(True, True, True)","[PeriodicSite: Nb (0.0, 0.0, 0.0) [0.0, 0.0, 0.0], PeriodicSite: Ag (2.012, 2.012, 2.012) [0.5, 0.5, 0.5], PeriodicSite: O (2.012, 0.0, 0.0) [0.5, 0.0, 0.0], PeriodicSite: O (0.0, 2.012, 0.0) [0.0, 0.5, 0.0], PeriodicSite: O (0.0, 0.0, 2.012) [0.0, 0.0, 0.5]]",65.1582457381741,"[Element Nb, Element Ag, Element O, Element O, Element O]",False,False,-2.1506196385833327,0.09190561892307336,1.3336000000000001
1622,mp,mp-998154.cif,Tl1 Ag1 Br3,TlAgBr3,Cm,5.408564107976349,5.408564107976349,5.406525597973249,89.88538659064143,89.88538659064143,89.90345912481358,"(True, True, True)","[PeriodicSite: Tl (0.0, 0.0332, 5.399) [0.002343, 0.002343, 0.9986], PeriodicSite: Ag (0.0, 3.846, 2.784) [0.5014, 0.5014, 0.5149], PeriodicSite: Br (-1.931, 1.943, 2.8) [0.000114, 0.5055, 0.5178], PeriodicSite: Br (0.0, 3.78, 0.08133) [0.4937, 0.4937, 0.01504], PeriodicSite: Br (1.931, 1.943, 2.8) [0.5055, 0.000114, 0.5178]]",158.15388901605056,"[Element Tl, Element Ag, Element Br, Element Br, Element Br]",False,False,-0.8678826779999997,0.04346307775000069,0.0
1623,mp,mp-19749.cif,Pr3 In1 C1,Pr3InC,Pm-3m,5.831276,5.831276,5.831276,90.0,90.0,90.0,"(True, True, True)","[PeriodicSite: Pr (2.916, 0.0, 2.916) [0.5, 0.0, 0.5], PeriodicSite: Pr (2.916, 2.916, 0.0) [0.5, 0.5, 0.0], PeriodicSite: Pr (0.0, 2.916, 2.916) [0.0, 0.5, 0.5], PeriodicSite: In (2.916, 2.916, 2.916) [0.5, 0.5, 0.5], PeriodicSite: C (0.0, 0.0, 0.0) [0.0, 0.0, 0.0]]",198.28542498807576,"[Element Pr, Element Pr, Element Pr, Element In, Element C]",False,False,1.5703747354999997,1.8279494223333335,0.0
1624,mp,mp-754892.cif,Rb3 Cl1 O1,Rb3ClO,Pm-3m,5.533679,5.533679,5.533679,90.0,90.0,90.0,"(True, True, True)","[PeriodicSite: Rb (0.0, 0.0, 2.767) [0.0, 0.0, 0.5], PeriodicSite: Rb (0.0, 2.767, 0.0) [0.0, 0.5, 0.0], PeriodicSite: Rb (2.767, 0.0, 0.0) [0.5, 0.0, 0.0], PeriodicSite: Cl (2.767, 2.767, 2.767) [0.5, 0.5, 0.5], PeriodicSite: O (0.0, 0.0, 0.0) [0.0, 0.0, 0.0]]",169.45012298942564,"[Element Rb, Element Rb, Element Rb, Element Cl, Element O]",False,False,-1.5530111642499995,0.04144758200000043,0.47940000000000005