,provider,id,Full_Formula,formula,space_group,a_lattice_param,b_lattice_param,c_lattice_param,aplha_degree,beta_degree,gamma_degree,pbc,sits,volume,species_at_sites,is_stable,is_magnetic,formation_energy,energy_above_hull,band_gap
114,mp,mp-1184945.cif,K1 Y1 O3,KYO3,Pm-3m,4.497543,4.497543,4.497543,90.0,90.0,90.0,"(True, True, True)","[PeriodicSite: K (0.0, 0.0, 0.0) [0.0, 0.0, 0.0], PeriodicSite: Y (2.249, 2.249, 2.249) [0.5, 0.5, 0.5], PeriodicSite: O (2.249, 2.249, 0.0) [0.5, 0.5, 0.0], PeriodicSite: O (2.249, 0.0, 2.249) [0.5, 0.0, 0.5], PeriodicSite: O (0.0, 2.249, 2.249) [0.0, 0.5, 0.5]]",90.97581873262898,"[Element K, Element Y, Element O, Element O, Element O]",False,True,-2.2723211411833333,0.2712960479166675,0.0
115,mp,mp-1185882.cif,Mg1 Hg1 O3,MgHgO3,Pm-3m,3.973459,3.973459,3.973459,90.0,90.0,90.0,"(True, True, True)","[PeriodicSite: Mg (1.987, 1.987, 1.987) [0.5, 0.5, 0.5], PeriodicSite: Hg (0.0, 0.0, 0.0) [0.0, 0.0, 0.0], PeriodicSite: O (1.987, 1.987, 0.0) [0.5, 0.5, 0.0], PeriodicSite: O (1.987, 0.0, 1.987) [0.5, 0.0, 0.5], PeriodicSite: O (0.0, 1.987, 1.987) [0.0, 0.5, 0.5]]",62.734466400036546,"[Element Mg, Element Hg, Element O, Element O, Element O]",False,True,-0.9649733382500003,0.5121185677499991,0.0
116,mp,mp-1186747.cif,Pr1 Hf1 O3,PrHfO3,Pm-3m,4.125883,4.125883,4.125883,90.0,90.0,90.0,"(True, True, True)","[PeriodicSite: Pr (0.0, 0.0, 0.0) [0.0, 0.0, 0.0], PeriodicSite: Hf (2.063, 2.063, 2.063) [0.5, 0.5, 0.5], PeriodicSite: O (2.063, 2.063, 0.0) [0.5, 0.5, 0.0], PeriodicSite: O (2.063, 0.0, 2.063) [0.5, 0.0, 0.5], PeriodicSite: O (0.0, 2.063, 2.063) [0.0, 0.5, 0.5]]",70.23453716496483,"[Element Pr, Element Hf, Element O, Element O, Element O]",False,False,-3.453473730249999,0.22375293974999622,0.0
117,mp,mp-1069379.cif,Gd1 Co1 Si3,GdCoSi3,I4mm,5.612877539088662,5.612877539088662,5.612877539088662,137.4665121318015,137.4665121318015,61.721050280738154,"(True, True, True)","[PeriodicSite: Gd (0.0, 0.0, 0.02352) [0.002441, 0.002441, 0.0], PeriodicSite: Co (0.0, 0.0, 6.371) [0.6612, 0.6612, 0.0], PeriodicSite: Si (0.0, 0.0, 4.142) [0.4298, 0.4298, 0.0], PeriodicSite: Si (2.036, 0.0, 2.523) [0.2618, 0.7618, 0.5], PeriodicSite: Si (0.0, 2.036, 2.523) [0.7618, 0.2618, 0.5]]",79.87957772570829,"[Element Gd, Element Co, Element Si, Element Si, Element Si]",True,True,-0.641021361,0.0,0.0
118,mp,mp-10040.cif,Al1 Pt3 C1,AlPt3C,Pm-3m,4.18515,4.18515,4.18515,90.0,90.0,90.0,"(True, True, True)","[PeriodicSite: Al (0.0, 0.0, 0.0) [0.0, 0.0, 0.0], PeriodicSite: Pt (0.0, 2.093, 2.093) [0.0, 0.5, 0.5], PeriodicSite: Pt (2.093, 0.0, 2.093) [0.5, 0.0, 0.5], PeriodicSite: Pt (2.093, 2.093, 0.0) [0.5, 0.5, 0.0], PeriodicSite: C (2.093, 2.093, 2.093) [0.5, 0.5, 0.5]]",73.3049133087409,"[Element Al, Element Pt, Element Pt, Element Pt, Element C]",False,False,0.21182309849999967,0.7658357209999993,0.0
119,mp,mp-1187556.cif,Th1 Re1 O3,ThReO3,Pm-3m,4.001598,4.001598,4.001598,90.0,90.0,90.0,"(True, True, True)","[PeriodicSite: Th (0.0, 0.0, 0.0) [0.0, 0.0, 0.0], PeriodicSite: Re (2.001, 2.001, 2.001) [0.5, 0.5, 0.5], PeriodicSite: O (2.001, 2.001, 0.0) [0.5, 0.5, 0.0], PeriodicSite: O (2.001, 0.0, 2.001) [0.5, 0.0, 0.5], PeriodicSite: O (0.0, 2.001, 2.001) [0.0, 0.5, 0.5]]",64.07673464732868,"[Element Th, Element Re, Element O, Element O, Element O]",False,False,-2.0928655582499998,1.0980081246666682,0.0
120,mp,mp-10113.cif,Sc1 B1 Ir3,ScBIr3,Pm-3m,4.12710079,4.12710079,4.12710079,90.0,90.0,90.0,"(True, True, True)","[PeriodicSite: Sc (0.0, 0.0, 0.0) [-0.0, -0.0, -0.0], PeriodicSite: B (2.064, 2.064, 2.064) [0.5, 0.5, 0.5], PeriodicSite: Ir (0.0, 2.064, 2.064) [-0.0, 0.5, 0.5], PeriodicSite: Ir (2.064, 0.0, 2.064) [0.5, -0.0, 0.5], PeriodicSite: Ir (2.064, 2.064, 0.0) [0.5, 0.5, -0.0]]",70.29674651362069,"[Element Sc, Element B, Element Ir, Element Ir, Element Ir]",True,False,-0.6593359808333332,0.0,0.0
121,mp,mp-1184304.cif,Eu1 In1 O3,EuInO3,Pm-3m,4.191291,4.191291,4.191291,90.0,90.0,90.0,"(True, True, True)","[PeriodicSite: Eu (0.0, 0.0, 0.0) [0.0, 0.0, 0.0], PeriodicSite: In (2.096, 2.096, 2.096) [0.5, 0.5, 0.5], PeriodicSite: O (2.096, 2.096, 0.0) [0.5, 0.5, 0.0], PeriodicSite: O (2.096, 0.0, 2.096) [0.5, 0.0, 0.5], PeriodicSite: O (0.0, 2.096, 2.096) [0.0, 0.5, 0.5]]",73.62807472763184,"[Element Eu, Element In, Element O, Element O, Element O]",False,True,-2.22142702325,0.37007159787499866,0.0
122,mp,mp-1184953.cif,K1 Yb1 O3,KYbO3,Pm-3m,4.482735,4.482735,4.482735,90.0,90.0,90.0,"(True, True, True)","[PeriodicSite: K (0.0, 0.0, 0.0) [0.0, 0.0, 0.0], PeriodicSite: Yb (2.241, 2.241, 2.241) [0.5, 0.5, 0.5], PeriodicSite: O (2.241, 2.241, 0.0) [0.5, 0.5, 0.0], PeriodicSite: O (2.241, 0.0, 2.241) [0.5, 0.0, 0.5], PeriodicSite: O (0.0, 2.241, 2.241) [0.0, 0.5, 0.5]]",90.08017018668241,"[Element K, Element Yb, Element O, Element O, Element O]",False,True,-1.6185809298500005,0.4263779060000008,0.0
123,mp,mp-1184813.cif,Ho1 Si1 O3,HoSiO3,Pm-3m,3.7096,3.7096,3.7096,90.0,90.0,90.0,"(True, True, True)","[PeriodicSite: Ho (0.0, 0.0, 0.0) [0.0, 0.0, 0.0], PeriodicSite: Si (1.855, 1.855, 1.855) [0.5, 0.5, 0.5], PeriodicSite: O (1.855, 1.855, 0.0) [0.5, 0.5, 0.0], PeriodicSite: O (1.855, 0.0, 1.855) [0.5, 0.0, 0.5], PeriodicSite: O (0.0, 1.855, 1.855) [0.0, 0.5, 0.5]]",51.048295860736005,"[Element Ho, Element Si, Element O, Element O, Element O]",False,False,-2.7874729992499994,0.7570571732500095,0.0
124,mp,mp-1183414.cif,Be1 Au1 O3,BeAuO3,Pm-3m,3.570985,3.570985,3.570985,90.0,90.0,90.0,"(True, True, True)","[PeriodicSite: Be (1.785, 1.785, 1.785) [0.5, 0.5, 0.5], PeriodicSite: Au (0.0, 0.0, 0.0) [0.0, 0.0, 0.0], PeriodicSite: O (1.785, 1.785, 0.0) [0.5, 0.5, 0.0], PeriodicSite: O (1.785, 0.0, 1.785) [0.5, 0.0, 0.5], PeriodicSite: O (0.0, 1.785, 1.785) [0.0, 0.5, 0.5]]",45.53696457156541,"[Element Be, Element Au, Element O, Element O, Element O]",False,False,-0.6288533362500004,0.8418518291249999,0.0
125,mp,mp-1013535.cif,Sr3 Sb1 P1,Sr3SbP,Pm-3m,6.100651,6.100651,6.100651,90.0,90.0,90.0,"(True, True, True)","[PeriodicSite: Sr (0.0, 3.05, 3.05) [0.0, 0.5, 0.5], PeriodicSite: Sr (3.05, 0.0, 3.05) [0.5, 0.0, 0.5], PeriodicSite: Sr (3.05, 3.05, 0.0) [0.5, 0.5, 0.0], PeriodicSite: Sb (3.05, 3.05, 3.05) [0.5, 0.5, 0.5], PeriodicSite: P (0.0, 0.0, 0.0) [0.0, 0.0, 0.0]]",227.0536788858342,"[Element Sr, Element Sr, Element Sr, Element Sb, Element P]",False,False,-0.3237125226666663,0.7330771138055563,0.0
126,mp,mp-1068715.cif,Eu1 Ge3 Ir1,EuGe3Ir,I4mm,5.973193328912182,5.973193328912182,5.973193328912182,136.02986796537877,136.02986796537877,63.93416226594518,"(True, True, True)","[PeriodicSite: Eu (0.0, 0.0, 0.003557) [0.000351, 0.000351, 0.0], PeriodicSite: Ge (2.236, 0.0, 2.484) [0.2451, 0.7451, 0.5], PeriodicSite: Ge (0.0, 2.236, 2.484) [0.7451, 0.2451, 0.5], PeriodicSite: Ge (0.0, 0.0, 5.923) [0.5844, 0.5844, 0.0], PeriodicSite: Ir (0.0, 0.0, 3.524) [0.3477, 0.3477, 0.0]]",101.35525791104978,"[Element Eu, Element Ge, Element Ge, Element Ge, Element Ir]",True,True,-0.6016873869999998,0.0,0.0
127,mp,mp-1187364.cif,Tb1 Si1 O3,TbSiO3,Pm-3m,3.728302,3.728302,3.728302,90.0,90.0,90.0,"(True, True, True)","[PeriodicSite: Tb (0.0, 0.0, 0.0) [0.0, 0.0, 0.0], PeriodicSite: Si (1.864, 1.864, 1.864) [0.5, 0.5, 0.5], PeriodicSite: O (1.864, 1.864, 0.0) [0.5, 0.5, 0.0], PeriodicSite: O (1.864, 0.0, 1.864) [0.5, 0.0, 0.5], PeriodicSite: O (0.0, 1.864, 1.864) [0.0, 0.5, 0.5]]",51.82427694555707,"[Element Tb, Element Si, Element O, Element O, Element O]",False,False,-2.8171226392500004,0.709497433999994,0.0
128,mp,mp-1017566.cif,Ge1 Pb1 O3,GePbO3,Pm-3m,3.888437,3.888437,3.888437,90.0,90.0,90.0,"(True, True, True)","[PeriodicSite: Ge (1.944, 1.944, 1.944) [0.5, 0.5, 0.5], PeriodicSite: Pb (0.0, 0.0, 0.0) [0.0, 0.0, 0.0], PeriodicSite: O (0.0, 1.944, 1.944) [0.0, 0.5, 0.5], PeriodicSite: O (1.944, 1.944, 0.0) [0.5, 0.5, 0.0], PeriodicSite: O (1.944, 0.0, 1.944) [0.5, 0.0, 0.5]]",58.79294308872988,"[Element Ge, Element Pb, Element O, Element O, Element O]",False,False,-1.71223558625,0.2177559430000029,0.0
129,mp,mp-1185084.cif,La1 Pt1 O3,LaPtO3,Pm-3m,4.089271,4.089271,4.089271,90.0,90.0,90.0,"(True, True, True)","[PeriodicSite: La (0.0, 0.0, 0.0) [0.0, 0.0, 0.0], PeriodicSite: Pt (2.045, 2.045, 2.045) [0.5, 0.5, 0.5], PeriodicSite: O (2.045, 2.045, 0.0) [0.5, 0.5, 0.0], PeriodicSite: O (2.045, 0.0, 2.045) [0.5, 0.0, 0.5], PeriodicSite: O (0.0, 2.045, 2.045) [0.0, 0.5, 0.5]]",68.38135116569364,"[Element La, Element Pt, Element O, Element O, Element O]",False,False,-2.01659465025,0.42500258965625193,0.0
130,mp,mp-1186329.cif,Np1 Ru1 O3,NpRuO3,Pm-3m,3.962522,3.962522,3.962522,90.0,90.0,90.0,"(True, True, True)","[PeriodicSite: Np (0.0, 0.0, 0.0) [0.0, 0.0, 0.0], PeriodicSite: Ru (1.981, 1.981, 1.981) [0.5, 0.5, 0.5], PeriodicSite: O (1.981, 1.981, 0.0) [0.5, 0.5, 0.0], PeriodicSite: O (1.981, 0.0, 1.981) [0.5, 0.0, 0.5], PeriodicSite: O (0.0, 1.981, 1.981) [0.0, 0.5, 0.5]]",62.217858564191054,"[Element Np, Element Ru, Element O, Element O, Element O]",False,True,-1.8615943849999994,0.7717826082499997,0.0
131,mp,mp-1187535.cif,Yb1 Re1 O3,YbReO3,Pm-3m,3.929187,3.929187,3.929187,90.0,90.0,90.0,"(True, True, True)","[PeriodicSite: Yb (0.0, 0.0, 0.0) [0.0, 0.0, 0.0], PeriodicSite: Re (1.965, 1.965, 1.965) [0.5, 0.5, 0.5], PeriodicSite: O (1.965, 1.965, 0.0) [0.5, 0.5, 0.0], PeriodicSite: O (1.965, 0.0, 1.965) [0.5, 0.0, 0.5], PeriodicSite: O (0.0, 1.965, 1.965) [0.0, 0.5, 0.5]]",60.660794681187156,"[Element Yb, Element Re, Element O, Element O, Element O]",False,False,-2.4500044022499994,0.14151657833333608,0.0
132,mp,mp-1184157.cif,Er1 Cu1 O3,ErCuO3,Pm-3m,3.765783,3.765783,3.765783,90.0,90.0,90.0,"(True, True, True)","[PeriodicSite: Er (0.0, 0.0, 0.0) [0.0, 0.0, 0.0], PeriodicSite: Cu (1.883, 1.883, 1.883) [0.5, 0.5, 0.5], PeriodicSite: O (1.883, 1.883, 0.0) [0.5, 0.5, 0.0], PeriodicSite: O (1.883, 0.0, 1.883) [0.5, 0.0, 0.5], PeriodicSite: O (0.0, 1.883, 1.883) [0.0, 0.5, 0.5]]",53.403026653845295,"[Element Er, Element Cu, Element O, Element O, Element O]",False,False,-2.2046862252499997,0.2747095850625003,0.0
133,mp,mp-1016928.cif,Mg1 Si1 O3,MgSiO3,Pm-3m,3.527218,3.527218,3.527218,90.0,90.0,90.0,"(True, True, True)","[PeriodicSite: Mg (0.0, 0.0, 0.0) [0.0, 0.0, 0.0], PeriodicSite: Si (1.764, 1.764, 1.764) [0.5, 0.5, 0.5], PeriodicSite: O (1.764, 1.764, 0.0) [0.5, 0.5, 0.0], PeriodicSite: O (1.764, 0.0, 1.764) [0.5, 0.0, 0.5], PeriodicSite: O (0.0, 1.764, 1.764) [0.0, 0.5, 0.5]]",43.8830602686278,"[Element Mg, Element Si, Element O, Element O, Element O]",False,False,-2.77058353125,0.4655609979999973,4.4298
134,mp,mp-1186799.cif,Pu1 Pb1 O3,PuPbO3,Pm-3m,4.358038,4.358038,4.358038,90.0,90.0,90.0,"(True, True, True)","[PeriodicSite: Pu (2.179, 2.179, 2.179) [0.5, 0.5, 0.5], PeriodicSite: Pb (0.0, 0.0, 0.0) [0.0, 0.0, 0.0], PeriodicSite: O (2.179, 2.179, 0.0) [0.5, 0.5, 0.0], PeriodicSite: O (2.179, 0.0, 2.179) [0.5, 0.0, 0.5], PeriodicSite: O (0.0, 2.179, 2.179) [0.0, 0.5, 0.5]]",82.77001583757489,"[Element Pu, Element Pb, Element O, Element O, Element O]",False,True,-2.5641210992500008,0.21413194381250023,0.0
135,mp,mp-1187183.cif,Sr1 Li1 O3,SrLiO3,Pm-3m,3.909437,3.909437,3.909437,90.0,90.0,90.0,"(True, True, True)","[PeriodicSite: Sr (0.0, 0.0, 0.0) [0.0, 0.0, 0.0], PeriodicSite: Li (1.955, 1.955, 1.955) [0.5, 0.5, 0.5], PeriodicSite: O (1.955, 1.955, 0.0) [0.5, 0.5, 0.0], PeriodicSite: O (1.955, 0.0, 1.955) [0.5, 0.0, 0.5], PeriodicSite: O (0.0, 1.955, 1.955) [0.0, 0.5, 0.5]]",59.75065311696792,"[Element Sr, Element Li, Element O, Element O, Element O]",False,True,-1.6961479172500007,0.2879579610000018,0.0
136,mp,mp-1183212.cif,B1 Au1 O3,BAuO3,Pm-3m,3.49667,3.49667,3.49667,90.0,90.0,90.0,"(True, True, True)","[PeriodicSite: B (1.748, 1.748, 1.748) [0.5, 0.5, 0.5], PeriodicSite: Au (0.0, 0.0, 0.0) [0.0, 0.0, 0.0], PeriodicSite: O (1.748, 1.748, 0.0) [0.5, 0.5, 0.0], PeriodicSite: O (1.748, 0.0, 1.748) [0.5, 0.0, 0.5], PeriodicSite: O (0.0, 1.748, 1.748) [0.0, 0.5, 0.5]]",42.75273889652396,"[Element B, Element Au, Element O, Element O, Element O]",False,True,-0.30149499508333333,1.3272232336666665,0.0
137,mp,mp-1013555.cif,Sr3 As1 N1,Sr3AsN,Pm-3m,5.09566939,5.09566939,5.09566939,90.0,90.0,90.0,"(True, True, True)","[PeriodicSite: Sr (0.0, 2.548, 2.548) [0.0, 0.5, 0.5], PeriodicSite: Sr (2.548, 0.0, 2.548) [0.5, 0.0, 0.5], PeriodicSite: Sr (2.548, 2.548, 0.0) [0.5, 0.5, 0.0], PeriodicSite: As (0.0, 0.0, 0.0) [-0.0, -0.0, -0.0], PeriodicSite: N (2.548, 2.548, 2.548) [0.5, 0.5, 0.5]]",132.31336935948244,"[Element Sr, Element Sr, Element Sr, Element As, Element N]",True,False,-0.9389526480000001,0.0,0.4218000000000002
138,mp,mp-1013643.cif,Sr3 Bi1 P1,Sr3BiP,Pm-3m,5.776749,5.776749,5.776749,90.0,90.0,90.0,"(True, True, True)","[PeriodicSite: Sr (0.0, 2.888, 2.888) [0.0, 0.5, 0.5], PeriodicSite: Sr (2.888, 0.0, 2.888) [0.5, 0.0, 0.5], PeriodicSite: Sr (2.888, 2.888, 0.0) [0.5, 0.5, 0.0], PeriodicSite: Bi (0.0, 0.0, 0.0) [0.0, 0.0, 0.0], PeriodicSite: P (2.888, 2.888, 2.888) [0.5, 0.5, 0.5]]",192.7749031069175,"[Element Sr, Element Sr, Element Sr, Element Bi, Element P]",False,False,-0.9237904226666664,0.04435143487499982,0.0
139,mp,mp-1184220.cif,Ga1 Te1 O3,GaTeO3,Pm-3m,3.887148,3.887148,3.887148,90.0,90.0,90.0,"(True, True, True)","[PeriodicSite: Ga (1.944, 1.944, 1.944) [0.5, 0.5, 0.5], PeriodicSite: Te (0.0, 0.0, 0.0) [0.0, 0.0, 0.0], PeriodicSite: O (1.944, 1.944, 0.0) [0.5, 0.5, 0.0], PeriodicSite: O (1.944, 0.0, 1.944) [0.5, 0.0, 0.5], PeriodicSite: O (0.0, 1.944, 1.944) [0.0, 0.5, 0.5]]",58.734493651861776,"[Element Ga, Element Te, Element O, Element O, Element O]",False,False,-1.1945090200833328,0.6133688828541644,0.0
140,mp,mp-1185552.cif,Cs1 Ta1 O3,CsTaO3,Pm-3m,4.144158,4.144158,4.144158,90.0,90.0,90.0,"(True, True, True)","[PeriodicSite: Cs (0.0, 0.0, 0.0) [0.0, 0.0, 0.0], PeriodicSite: Ta (2.072, 2.072, 2.072) [0.5, 0.5, 0.5], PeriodicSite: O (2.072, 2.072, 0.0) [0.5, 0.5, 0.0], PeriodicSite: O (2.072, 0.0, 2.072) [0.5, 0.0, 0.5], PeriodicSite: O (0.0, 2.072, 2.072) [0.0, 0.5, 0.5]]",71.1719581712204,"[Element Cs, Element Ta, Element O, Element O, Element O]",False,False,-2.7811059828362064,0.2534156898636333,1.8626999999999998
141,mp,mp-1097061.cif,Ca1 Tl1 F3,CaTlF3,Cm,4.51086491101762,4.51086491101762,4.508624306634785,89.92703745226865,89.92703745226865,89.96285260609585,"(True, True, True)","[PeriodicSite: Ca (0.0, 3.201, 2.311) [0.5009, 0.5009, 0.5126], PeriodicSite: Tl (0.0, 0.05255, 0.02768) [0.008227, 0.008227, 0.00614], PeriodicSite: F (-1.588, 1.596, 2.331) [0.000421, 0.4985, 0.5169], PeriodicSite: F (0.0, 3.117, 0.05885) [0.4885, 0.4885, 0.01305], PeriodicSite: F (1.588, 1.596, 2.331) [0.4985, 0.000421, 0.5169]]",91.74087869651437,"[Element Ca, Element Tl, Element F, Element F, Element F]",False,False,-3.3031896841666666,0.01810233949999862,4.4565
142,mp,mp-11596.cif,Pr1 B1 Pt3,PrBPt3,P4mm,4.03625293,4.03625293,5.10236568,90.0,90.0,90.0,"(True, True, True)","[PeriodicSite: Pr (0.0, 0.0, 5.02) [0.0, 0.0, 0.9839], PeriodicSite: B (2.018, 2.018, 3.506) [0.5, 0.5, 0.6872], PeriodicSite: Pt (0.0, 2.018, 2.555) [0.0, 0.5, 0.5007], PeriodicSite: Pt (2.018, 2.018, 0.5109) [0.5, 0.5, 0.1001], PeriodicSite: Pt (2.018, 0.0, 2.555) [0.5, -0.0, 0.5007]]",83.12436243796674,"[Element Pr, Element B, Element Pt, Element Pt, Element Pt]",True,False,-0.8495389588333332,0.0,0.0
143,mp,mp-1181856.cif,Fe1 Bi1 O3,FeBiO3,Cm,8.464880462695028,5.388093915783113,5.321518785102708,122.20989581616588,142.68780258764497,47.9191782439966,"(True, True, True)","[PeriodicSite: Fe (2.749, 6.506, 6.584) [0.6996, 0.859, 0.0], PeriodicSite: Bi (0.9567, 1.161, 1.179) [0.1979, 0.06119, 0.0], PeriodicSite: O (1.093, 3.198, 5.61) [0.6134, 0.7274, 0.5186], PeriodicSite: O (-1.476, 0.9258, 3.126) [0.09484, 0.7274, 0.4814], PeriodicSite: O (1.983, 2.44, 2.477) [0.4116, 0.1337, 0.0]]",109.19388191578324,"[Element Fe, Element Bi, Element O, Element O, Element O]",False,True,-1.269397267250001,0.4156844289999988,1.4146
144,mp,mp-1016904.cif,V1 Cd1 O3,VCdO3,Pm-3m,3.840124,3.840124,3.840124,90.0,90.0,90.0,"(True, True, True)","[PeriodicSite: V (1.92, 1.92, 1.92) [0.5, 0.5, 0.5], PeriodicSite: Cd (0.0, 0.0, 0.0) [0.0, 0.0, 0.0], PeriodicSite: O (1.92, 1.92, 0.0) [0.5, 0.5, 0.0], PeriodicSite: O (1.92, 0.0, 1.92) [0.5, 0.0, 0.5], PeriodicSite: O (0.0, 1.92, 1.92) [0.0, 0.5, 0.5]]",56.628589540333415,"[Element V, Element Cd, Element O, Element O, Element O]",False,False,-1.7940188192500002,0.2858568290000001,0.0
145,mp,mp-1013712.cif,Ba3 Sb1 P1,Ba3SbP,Pm-3m,6.483458,6.483458,6.483458,90.0,90.0,90.0,"(True, True, True)","[PeriodicSite: Ba (0.0, 3.242, 3.242) [0.0, 0.5, 0.5], PeriodicSite: Ba (3.242, 0.0, 3.242) [0.5, 0.0, 0.5], PeriodicSite: Ba (3.242, 3.242, 0.0) [0.5, 0.5, 0.0], PeriodicSite: Sb (3.242, 3.242, 3.242) [0.5, 0.5, 0.5], PeriodicSite: P (0.0, 0.0, 0.0) [0.0, 0.0, 0.0]]",272.53363290988204,"[Element Ba, Element Ba, Element Ba, Element Sb, Element P]",False,False,-0.3032931846666663,0.7357523499166652,0.0
146,mp,mp-1040472.cif,K1 W1 O3,KWO3,Pm-3m,4.017149,4.017149,4.017149,90.0,90.0,90.0,"(True, True, True)","[PeriodicSite: K (2.009, 2.009, 2.009) [0.5, 0.5, 0.5], PeriodicSite: W (0.0, 0.0, 0.0) [0.0, 0.0, 0.0], PeriodicSite: O (2.009, 0.0, 0.0) [0.5, 0.0, 0.0], PeriodicSite: O (0.0, 2.009, 0.0) [0.0, 0.5, 0.0], PeriodicSite: O (0.0, 0.0, 2.009) [0.0, 0.0, 0.5]]",64.82668610173054,"[Element K, Element W, Element O, Element O, Element O]",False,True,-2.1386461258500007,0.06768372483333351,0.0
147,mp,mp-1070753.cif,Ce1 Co1 Si3,CeCoSi3,I4mm,5.5480968803644,5.5480968803644,5.5480968803644,136.67322399889952,136.67322399889952,62.941219873955795,"(True, True, True)","[PeriodicSite: Ce (0.0, 0.0, 0.0007596) [8.026e-05, 8.026e-05, 0.0], PeriodicSite: Co (0.0, 0.0, 6.265) [0.662, 0.662, -0.0], PeriodicSite: Si (0.0, 0.0, 4.028) [0.4257, 0.4257, -0.0], PeriodicSite: Si (2.048, 0.0, 2.467) [0.2606, 0.7606, 0.5], PeriodicSite: Si (0.0, 2.048, 2.467) [0.7606, 0.2606, 0.5]]",79.39754017064506,"[Element Ce, Element Co, Element Si, Element Si, Element Si]",True,False,-0.6636419499999995,0.0,0.0
148,mp,mp-11824.cif,Ca3 P1 N1,Ca3PN,Pm-3m,4.71165792,4.71165792,4.71165792,90.0,90.0,90.0,"(True, True, True)","[PeriodicSite: Ca (2.356, 0.0, 2.356) [0.5, -0.0, 0.5], PeriodicSite: Ca (2.356, 2.356, 0.0) [0.5, 0.5, -0.0], PeriodicSite: Ca (0.0, 2.356, 2.356) [-0.0, 0.5, 0.5], PeriodicSite: P (0.0, 0.0, 0.0) [0.0, 0.0, 0.0], PeriodicSite: N (2.356, 2.356, 2.356) [0.5, 0.5, 0.5]]",104.59748823288615,"[Element Ca, Element Ca, Element Ca, Element P, Element N]",True,False,-1.0902869296666666,0.0,0.8055999999999996
149,mp,mp-1185388.cif,Li1 Pm1 O3,LiPmO3,Pm-3m,3.746129,3.746129,3.746129,90.0,90.0,90.0,"(True, True, True)","[PeriodicSite: Li (1.873, 1.873, 1.873) [0.5, 0.5, 0.5], PeriodicSite: Pm (0.0, 0.0, 0.0) [0.0, 0.0, 0.0], PeriodicSite: O (1.873, 1.873, 0.0) [0.5, 0.5, 0.0], PeriodicSite: O (1.873, 0.0, 1.873) [0.5, 0.0, 0.5], PeriodicSite: O (0.0, 1.873, 1.873) [0.0, 0.5, 0.5]]",52.5712357067057,"[Element Li, Element Pm, Element O, Element O, Element O]",False,True,-2.299096837416667,0.2875462439642851,0.0
150,mp,mp-1187190.cif,Sr1 Pd1 O3,SrPdO3,Pm-3m,4.039472,4.039472,4.039472,90.0,90.0,90.0,"(True, True, True)","[PeriodicSite: Sr (0.0, 0.0, 0.0) [0.0, 0.0, 0.0], PeriodicSite: Pd (2.02, 2.02, 2.02) [0.5, 0.5, 0.5], PeriodicSite: O (2.02, 2.02, 0.0) [0.5, 0.5, 0.0], PeriodicSite: O (2.02, 0.0, 2.02) [0.5, 0.0, 0.5], PeriodicSite: O (0.0, 2.02, 2.02) [0.0, 0.5, 0.5]]",65.91341396431488,"[Element Sr, Element Pd, Element O, Element O, Element O]",False,False,-1.6784321045833337,0.07012186049999869,0.0