,provider,id,Full_Formula,formula,space_group,a_lattice_param,b_lattice_param,c_lattice_param,aplha_degree,beta_degree,gamma_degree,pbc,sits,volume,species_at_sites,is_stable,is_magnetic,formation_energy,energy_above_hull,band_gap
1444,mp,mp-975288.cif,Rb1 Np1 O3,RbNpO3,Pm-3m,4.3055239379562185,4.305542683540013,4.304774405814152,90.28442336773512,90.28837594976997,89.67589710604241,"(True, True, True)","[PeriodicSite: Rb (8.792e-09, 4.305e-06, -1.932e-08) [-0.0, 1e-06, -0.0], PeriodicSite: Np (2.146, 2.16, 2.143) [0.5, 0.5, 0.5], PeriodicSite: O (2.157, 2.161, -0.00889) [0.5, 0.5, 0.0], PeriodicSite: O (2.141, 0.006782, 2.153) [0.5, 0.0, 0.5], PeriodicSite: O (-0.007199, 2.152, 2.143) [1e-06, 0.5, 0.5]]",79.7970001194663,"[Element Rb, Element Np, Element O, Element O, Element O]",False,True,-3.0783086045000005,0.012339058999998542,0.0
1445,mp,mp-3022.cif,Tb1 B1 Pd3,TbBPd3,Pm-3m,4.327708,4.327708,4.327708,90.0,90.0,90.0,"(True, True, True)","[PeriodicSite: Tb (0.0, 0.0, 0.0) [0.0, 0.0, 0.0], PeriodicSite: B (2.164, 2.164, 2.164) [0.5, 0.5, 0.5], PeriodicSite: Pd (0.0, 2.164, 2.164) [0.0, 0.5, 0.5], PeriodicSite: Pd (2.164, 2.164, 0.0) [0.5, 0.5, 0.0], PeriodicSite: Pd (2.164, 0.0, 2.164) [0.5, 0.0, 0.5]]",81.0538877914589,"[Element Tb, Element B, Element Pd, Element Pd, Element Pd]",False,False,-0.618371165833333,0.11274995509091124,0.0
1446,mp,mp-984745.cif,Cs1 Sn1 O3,CsSnO3,Pm-3m,4.274027,4.274027,4.274027,90.0,90.0,90.0,"(True, True, True)","[PeriodicSite: Cs (0.0, 0.0, 0.0) [0.0, 0.0, 0.0], PeriodicSite: Sn (2.137, 2.137, 2.137) [0.5, 0.5, 0.5], PeriodicSite: O (2.137, 2.137, 0.0) [0.5, 0.5, 0.0], PeriodicSite: O (2.137, 0.0, 2.137) [0.5, 0.0, 0.5], PeriodicSite: O (0.0, 2.137, 2.137) [0.0, 0.5, 0.5]]",78.07496246650327,"[Element Cs, Element Sn, Element O, Element O, Element O]",False,True,-1.531331741836207,0.26892191533333243,0.0
1447,mp,mp-27193.cif,Rb1 I1 O3,RbIO3,R3m,4.519323495300368,4.5193244089398155,4.519323164597181,89.71652164800666,89.71650902424665,89.71651552162027,"(True, True, True)","[PeriodicSite: Rb (2.2, 2.189, 2.211) [0.4844, 0.4844, 0.4844], PeriodicSite: I (-0.004769, -0.004746, -0.004794) [-0.00105, -0.00105, -0.00105], PeriodicSite: O (1.82, 4.354, 4.385) [0.3981, 0.9635, 0.9635], PeriodicSite: O (4.376, 4.354, 1.843) [0.9635, 0.9635, 0.3981], PeriodicSite: O (4.363, 1.798, 4.385) [0.9635, 0.3981, 0.9635]]",92.30058405320739,"[Element Rb, Element I, Element O, Element O, Element O]",True,False,-1.38342217275,0.0,2.8369
1448,mp,mp-975913.cif,Pr1 Nb1 O3,PrNbO3,Pm-3m,4.086932,4.086932,4.086932,90.0,90.0,90.0,"(True, True, True)","[PeriodicSite: Pr (0.0, 0.0, 0.0) [0.0, 0.0, 0.0], PeriodicSite: Nb (2.043, 2.043, 2.043) [0.5, 0.5, 0.5], PeriodicSite: O (2.043, 2.043, 0.0) [0.5, 0.5, 0.0], PeriodicSite: O (2.043, 0.0, 2.043) [0.5, 0.0, 0.5], PeriodicSite: O (0.0, 2.043, 2.043) [0.0, 0.5, 0.5]]",68.26407903161855,"[Element Pr, Element Nb, Element O, Element O, Element O]",False,False,-2.92962049425,0.3420852023500096,0.0
1449,mp,mp-21862.cif,V1 Ru3 C1,VRu3C,Pm-3m,4.003409,4.003409,4.003409,90.0,90.0,90.0,"(True, True, True)","[PeriodicSite: V (0.0, 0.0, 0.0) [0.0, 0.0, 0.0], PeriodicSite: Ru (0.0, 2.002, 2.002) [0.0, 0.5, 0.5], PeriodicSite: Ru (2.002, 0.0, 2.002) [0.5, 0.0, 0.5], PeriodicSite: Ru (2.002, 2.002, 0.0) [0.5, 0.5, 0.0], PeriodicSite: C (2.002, 2.002, 2.002) [0.5, 0.5, 0.5]]",64.16377149498896,"[Element V, Element Ru, Element Ru, Element Ru, Element C]",False,True,0.10338165050000044,0.30249462097222235,0.0
1450,mp,mp-21292.cif,Tm3 In1 C1,Tm3InC,Pm-3m,5.506619,5.506619,5.506619,90.0,90.0,90.0,"(True, True, True)","[PeriodicSite: Tm (2.753, 0.0, 2.753) [0.5, 0.0, 0.5], PeriodicSite: Tm (2.753, 2.753, 0.0) [0.5, 0.5, 0.0], PeriodicSite: Tm (0.0, 2.753, 2.753) [0.0, 0.5, 0.5], PeriodicSite: In (2.753, 2.753, 2.753) [0.5, 0.5, 0.5], PeriodicSite: C (0.0, 0.0, 0.0) [0.0, 0.0, 0.0]]",166.97639742414253,"[Element Tm, Element Tm, Element Tm, Element In, Element C]",False,False,1.6183911865000007,1.9883497264500005,0.0
1451,mp,mp-568021.cif,Er3 Al1 C1,Er3AlC,Pm-3m,4.80526343,4.80526343,4.80526343,90.0,90.0,90.0,"(True, True, True)","[PeriodicSite: Er (2.403, 2.403, 0.0) [0.5, 0.5, -0.0], PeriodicSite: Er (2.403, 0.0, 2.403) [0.5, -0.0, 0.5], PeriodicSite: Er (0.0, 2.403, 2.403) [-0.0, 0.5, 0.5], PeriodicSite: Al (0.0, 0.0, 0.0) [0.0, -0.0, 0.0], PeriodicSite: C (2.403, 2.403, 2.403) [0.5, 0.5, 0.5]]",110.95620736062973,"[Element Er, Element Er, Element Er, Element Al, Element C]",True,False,-0.4313816074999998,0.0,0.0
1452,mp,mp-505628.cif,Cr3 Ir1 N1,Cr3IrN,P4/mmm,3.89412981,3.87556191,3.87562293,90.0,90.0,90.0,"(True, True, True)","[PeriodicSite: Cr (0.0, 1.938, 1.938) [-0.0, 0.5, 0.5], PeriodicSite: Cr (1.947, 0.0, 1.938) [0.5, 0.0, 0.5], PeriodicSite: Cr (1.947, 1.938, 0.0) [0.5, 0.5, -0.0], PeriodicSite: Ir (0.0, 0.0, 0.0) [0.0, 0.0, 0.0], PeriodicSite: N (1.947, 1.938, 1.938) [0.5, 0.5, 0.5]]",58.49067323430664,"[Element Cr, Element Cr, Element Cr, Element Ir, Element N]",False,True,-0.3624814029999996,0.005346442000000451,0.0
1453,mp,mp-19322.cif,Ba1 Mo1 O3,BaMoO3,Pm-3m,4.04839936,4.04839936,4.04839936,90.0,90.0,90.0,"(True, True, True)","[PeriodicSite: Ba (2.024, 2.024, 2.024) [0.5, 0.5, 0.5], PeriodicSite: Mo (0.0, 0.0, 0.0) [0.0, 0.0, 0.0], PeriodicSite: O (0.0, 2.024, 0.0) [-0.0, 0.5, -0.0], PeriodicSite: O (0.0, 0.0, 2.024) [0.0, -0.0, 0.5], PeriodicSite: O (2.024, 0.0, 0.0) [0.5, -0.0, -0.0]]",66.35139263198728,"[Element Ba, Element Mo, Element O, Element O, Element O]",True,False,-2.5175594712500002,0.0,0.0
1454,mp,mp-971733.cif,Zn1 Ga1 O3,ZnGaO3,Pm-3m,3.828184,3.828184,3.828184,90.0,90.0,90.0,"(True, True, True)","[PeriodicSite: Zn (1.914, 1.914, 1.914) [0.5, 0.5, 0.5], PeriodicSite: Ga (0.0, 0.0, 0.0) [0.0, 0.0, 0.0], PeriodicSite: O (0.0, 0.0, 1.914) [0.0, 0.0, 0.5], PeriodicSite: O (0.0, 1.914, 0.0) [0.0, 0.5, 0.0], PeriodicSite: O (1.914, 0.0, 0.0) [0.5, 0.0, 0.0]]",56.102008719176524,"[Element Zn, Element Ga, Element O, Element O, Element O]",False,True,-1.1487385447500003,0.7339474211250003,0.0
1455,mp,mp-752446.cif,Rb1 N1 O3,RbNO3,R32,4.708980741079326,4.708980741079326,4.708980346090754,81.70017532711401,81.70017532711401,81.70017263109375,"(True, True, True)","[PeriodicSite: Rb (4.011, 0.0, 2.311) [0.5, 0.5, 0.5], PeriodicSite: N (0.0, 0.0, 0.0) [0.0, 0.0, 0.0], PeriodicSite: O (1.449, -0.6363, 3.668) [0.2066, 0.0, 0.7934], PeriodicSite: O (3.562, -1.808, 0.0) [0.7934, 0.2066, 0.0], PeriodicSite: O (3.012, 2.444, 0.9549) [0.0, 0.7934, 0.2066]]",101.42668501949434,"[Element Rb, Element N, Element O, Element O, Element O]",False,False,-1.4011793797500005,0.021033902000000104,2.9814999999999996
1456,mp,mp-998415.cif,Cs1 Se1 Br3,CsSeBr3,Pm,5.575018,5.559635,5.5604636536221514,89.91136377779675,90.0,90.0,"(True, True, True)","[PeriodicSite: Cs (2.788, 5.563, 5.534) [0.5, 0.9991, 0.9952], PeriodicSite: Se (0.0, 2.801, 2.701) [0.0, 0.5031, 0.4858], PeriodicSite: Br (2.788, 2.811, 2.704) [0.5, 0.5049, 0.4863], PeriodicSite: Br (0.0, 2.787, 5.48) [0.0, 0.4997, 0.9856], PeriodicSite: Br (0.0, 0.0219, 2.709) [0.0, 0.003185, 0.4871]]",172.34672724806651,"[Element Cs, Element Se, Element Br, Element Br, Element Br]",False,False,-1.1723692080549573,0.05354866311764672,0.0
1457,mp,mp-865424.cif,Cs1 U1 O3,CsUO3,Pm-3m,4.415419,4.415419,4.415419,90.0,90.0,90.0,"(True, True, True)","[PeriodicSite: Cs (0.0, 0.0, 0.0) [0.0, 0.0, 0.0], PeriodicSite: U (2.208, 2.208, 2.208) [0.5, 0.5, 0.5], PeriodicSite: O (2.208, 2.208, 0.0) [0.5, 0.5, 0.0], PeriodicSite: O (2.208, 0.0, 2.208) [0.5, 0.0, 0.5], PeriodicSite: O (0.0, 2.208, 2.208) [0.0, 0.5, 0.5]]",86.082677427204,"[Element Cs, Element U, Element O, Element O, Element O]",False,True,-3.2201131088362076,0.021469604000001752,0.4571000000000005
1458,mp,mp-28602.cif,Na3 Cl1 O1,Na3ClO,Pm-3m,4.45871654,4.45871654,4.45871654,90.0,90.0,90.0,"(True, True, True)","[PeriodicSite: Na (2.229, 0.0, 0.0) [0.5, -0.0, -0.0], PeriodicSite: Na (0.0, 0.0, 2.229) [-0.0, 0.0, 0.5], PeriodicSite: Na (0.0, 2.229, 0.0) [-0.0, 0.5, -0.0], PeriodicSite: Cl (2.229, 2.229, 2.229) [0.5, 0.5, 0.5], PeriodicSite: O (0.0, 0.0, 0.0) [0.0, -0.0, 0.0]]",88.63996781954468,"[Element Na, Element Na, Element Na, Element Cl, Element O]",True,False,-1.7093824956810344,0.0,2.0299
1459,mp,mp-21135.cif,Pr3 In1 O1,Pr3InO,Pm-3m,5.01386593,5.01386074,5.01386074,90.0,90.0,90.0,"(True, True, True)","[PeriodicSite: Pr (2.507, 0.0, 2.507) [0.5, 0.0, 0.5], PeriodicSite: Pr (2.507, 2.507, 0.0) [0.5, 0.5, -0.0], PeriodicSite: Pr (0.0, 2.507, 2.507) [0.0, 0.5, 0.5], PeriodicSite: In (0.0, 0.0, 0.0) [-0.0, -0.0, -0.0], PeriodicSite: O (2.507, 2.507, 2.507) [0.5, 0.5, 0.5]]",126.04257043499666,"[Element Pr, Element Pr, Element Pr, Element In, Element O]",True,False,-1.5214020867499998,0.0,0.0
1460,mp,mp-7070.cif,Mn3 Pt1 N1,Mn3PtN,Pm-3m,3.97888141,3.97888141,3.97888141,90.0,90.0,90.0,"(True, True, True)","[PeriodicSite: Mn (0.0, 1.989, 1.989) [0.0, 0.5, 0.5], PeriodicSite: Mn (1.989, 1.989, 0.0) [0.5, 0.5, 0.0], PeriodicSite: Mn (1.989, 0.0, 1.989) [0.5, 0.0, 0.5], PeriodicSite: Pt (0.0, 0.0, 0.0) [-0.0, -0.0, -0.0], PeriodicSite: N (1.989, 1.989, 1.989) [0.5, 0.5, 0.5]]",62.99165019934082,"[Element Mn, Element Mn, Element Mn, Element Pt, Element N]",True,True,-0.38117913175861984,0.0,0.0
1461,mp,mp-3088.cif,La1 B1 Rh3,LaBRh3,Pm-3m,4.26187973,4.26187973,4.26187973,90.0,90.0,90.0,"(True, True, True)","[PeriodicSite: La (0.0, 0.0, 0.0) [0.0, -0.0, -0.0], PeriodicSite: B (2.131, 2.131, 2.131) [0.5, 0.5, 0.5], PeriodicSite: Rh (0.0, 2.131, 2.131) [-0.0, 0.5, 0.5], PeriodicSite: Rh (2.131, 2.131, 0.0) [0.5, 0.5, -0.0], PeriodicSite: Rh (2.131, 0.0, 2.131) [0.5, -0.0, 0.5]]",77.41115892774451,"[Element La, Element B, Element Rh, Element Rh, Element Rh]",True,True,-0.6978622008333332,0.0,0.0
1462,mp,mp-755877.cif,Ba1 Nd1 O3,BaNdO3,Pm-3m,4.556776,4.556776,4.556776,90.0,90.0,90.0,"(True, True, True)","[PeriodicSite: Ba (0.0, 0.0, 0.0) [0.0, 0.0, 0.0], PeriodicSite: Nd (2.278, 2.278, 2.278) [0.5, 0.5, 0.5], PeriodicSite: O (0.0, 2.278, 2.278) [0.0, 0.5, 0.5], PeriodicSite: O (2.278, 0.0, 2.278) [0.5, 0.0, 0.5], PeriodicSite: O (2.278, 2.278, 0.0) [0.5, 0.5, 0.0]]",94.61784245961687,"[Element Ba, Element Nd, Element O, Element O, Element O]",False,True,-2.93268975675,0.17852335125000796,0.0
1463,mp,mp-866894.cif,Ca1 Sn1 S3,CaSnS3,Amm2,5.7033890963729625,5.7033890963729625,4.12008,90.0,90.0,100.96746350378443,"(True, True, True)","[PeriodicSite: Ca (3.629, -2.146, 0.0) [0.7439, 0.2561, 0.0], PeriodicSite: Sn (3.629, 3.447, 2.06) [0.1083, 0.8917, 0.5], PeriodicSite: S (3.629, -0.3186, 2.06) [0.5362, 0.4638, 0.5], PeriodicSite: S (5.382, 1.621, 2.06) [0.5573, 0.9256, 0.5], PeriodicSite: S (1.876, 1.621, 2.06) [0.07436, 0.4427, 0.5]]",131.57279279396633,"[Element Ca, Element Sn, Element S, Element S, Element S]",False,False,-0.8931619848750003,0.4950634892499979,0.0
1464,mp,mp-1975771.cif,Rb1 Ag1 Cl3,RbAgCl3,Pm,5.08785996,5.087955359552138,5.084282022337793,90.0552484021803,90.0,90.0,"(True, True, True)","[PeriodicSite: Rb (0.0, 0.005059, 5.042) [0.0, 0.0009252, 0.9916], PeriodicSite: Ag (2.544, 2.555, 2.473) [0.5, 0.5021, 0.487], PeriodicSite: Cl (0.0, 2.562, 2.473) [0.0, 0.5036, 0.4868], PeriodicSite: Cl (2.544, 2.55, 5.015) [0.5, 0.5012, 0.9868], PeriodicSite: Cl (2.544, 0.01143, 2.48) [0.5, 0.002213, 0.4877]]",131.61575279448348,"[Element Rb, Element Ag, Element Cl, Element Cl, Element Cl]",False,False,-1.4189107948333333,0.0019681540000013875,0.0
1465,mp,mp-975322.cif,Rb1 Fe1 O3,RbFeO3,Pm-3m,4.045439,4.045439,4.045439,90.0,90.0,90.0,"(True, True, True)","[PeriodicSite: Rb (0.0, 0.0, 0.0) [0.0, 0.0, 0.0], PeriodicSite: Fe (2.023, 2.023, 2.023) [0.5, 0.5, 0.5], PeriodicSite: O (2.023, 2.023, 0.0) [0.5, 0.5, 0.0], PeriodicSite: O (2.023, 0.0, 2.023) [0.5, 0.0, 0.5], PeriodicSite: O (0.0, 2.023, 2.023) [0.0, 0.5, 0.5]]",66.20594225067894,"[Element Rb, Element Fe, Element O, Element O, Element O]",False,True,-1.1652705027500005,0.26684501566666885,0.0
1466,mp,mp-971706.cif,Zn1 Bi1 O3,ZnBiO3,Pm-3m,3.911416,3.911416,3.911416,90.0,90.0,90.0,"(True, True, True)","[PeriodicSite: Zn (1.956, 1.956, 1.956) [0.5, 0.5, 0.5], PeriodicSite: Bi (0.0, 0.0, 0.0) [0.0, 0.0, 0.0], PeriodicSite: O (1.956, 1.956, 0.0) [0.5, 0.5, 0.0], PeriodicSite: O (1.956, 0.0, 1.956) [0.5, 0.0, 0.5], PeriodicSite: O (0.0, 1.956, 1.956) [0.0, 0.5, 0.5]]",59.84143837094604,"[Element Zn, Element Bi, Element O, Element O, Element O]",False,False,-1.2224709332500006,0.38041959999999975,0.0
1467,mp,mp-975579.cif,Nd1 Be1 O3,NdBeO3,Pm-3m,3.660158,3.660158,3.660158,90.0,90.0,90.0,"(True, True, True)","[PeriodicSite: Nd (0.0, 0.0, 0.0) [0.0, 0.0, 0.0], PeriodicSite: Be (1.83, 1.83, 1.83) [0.5, 0.5, 0.5], PeriodicSite: O (1.83, 1.83, 0.0) [0.5, 0.5, 0.0], PeriodicSite: O (1.83, 0.0, 1.83) [0.5, 0.0, 0.5], PeriodicSite: O (0.0, 1.83, 1.83) [0.0, 0.5, 0.5]]",49.03424578850867,"[Element Nd, Element Be, Element O, Element O, Element O]",False,True,-2.87107709175,0.2666233600000014,0.0
1468,mp,mp-975291.cif,Rb1 Li1 O3,RbLiO3,Pm-3m,4.179392,4.179392,4.179392,90.0,90.0,90.0,"(True, True, True)","[PeriodicSite: Rb (0.0, 0.0, 0.0) [0.0, 0.0, 0.0], PeriodicSite: Li (2.09, 2.09, 2.09) [0.5, 0.5, 0.5], PeriodicSite: O (2.09, 2.09, 0.0) [0.5, 0.5, 0.0], PeriodicSite: O (2.09, 0.0, 2.09) [0.5, 0.0, 0.5], PeriodicSite: O (0.0, 2.09, 2.09) [0.0, 0.5, 0.5]]",73.00276697776181,"[Element Rb, Element Li, Element O, Element O, Element O]",False,True,-0.6973007354166668,0.5468869130000016,0.0
1469,mp,mp-19743.cif,La1 Fe1 Ge3,LaFeGe3,I4mm,4.40481504893322,4.404815363223806,5.843441238958228,112.14195078878241,112.14194253124853,89.99999943332024,"(True, True, True)","[PeriodicSite: La (1.93, 2.27, -1.104) [0.5637, 0.5637, 0.1275], PeriodicSite: Fe (0.7868, 0.9254, 1.962) [0.2334, 0.2334, 0.4668], PeriodicSite: Ge (3.135, 1.283, 1.9) [0.8235, 0.3235, 0.6469], PeriodicSite: Ge (-0.0008767, -0.001031, -0.002198) [-0.0002601, -0.0002601, -0.0005221], PeriodicSite: Ge (0.7618, 3.3, 1.9) [0.3235, 0.8235, 0.6469]]",95.92833916469999,"[Element La, Element Fe, Element Ge, Element Ge, Element Ge]",True,True,-0.5303394339999997,0.0,0.0
1470,mp,mp-31056.cif,Dy3 In1 N1,Dy3InN,Pm-3m,4.79206634,4.79206634,4.79206634,90.0,90.0,90.0,"(True, True, True)","[PeriodicSite: Dy (2.396, 2.396, 0.0) [0.5, 0.5, 0.0], PeriodicSite: Dy (0.0, 2.396, 2.396) [0.0, 0.5, 0.5], PeriodicSite: Dy (2.396, 0.0, 2.396) [0.5, 0.0, 0.5], PeriodicSite: In (0.0, 0.0, 0.0) [0.0, 0.0, 0.0], PeriodicSite: N (2.396, 2.396, 2.396) [0.5, 0.5, 0.5]]",110.04453130007028,"[Element Dy, Element Dy, Element Dy, Element In, Element N]",True,False,-1.0689111070000004,0.0,0.0
1471,mp,mp-20967.cif,Gd1 B1 Pd3,GdBPd3,Pm-3m,4.305525,4.305525,4.305525,90.0,90.0,90.0,"(True, True, True)","[PeriodicSite: Gd (0.0, 0.0, 0.0) [0.0, 0.0, 0.0], PeriodicSite: B (2.153, 2.153, 2.153) [0.5, 0.5, 0.5], PeriodicSite: Pd (2.153, 2.153, 0.0) [0.5, 0.5, 0.0], PeriodicSite: Pd (2.153, 0.0, 2.153) [0.5, 0.0, 0.5], PeriodicSite: Pd (0.0, 2.153, 2.153) [0.0, 0.5, 0.5]]",79.81386569921659,"[Element Gd, Element B, Element Pd, Element Pd, Element Pd]",False,True,-0.5989662898333336,0.12072131063636604,0.0
1472,mp,mp-998732.cif,Tl1 In1 Cl3,TlInCl3,Cm,5.417827305628152,5.417827305628152,5.411900095952714,89.96436036059107,89.96436036059107,90.05411043822996,"(True, True, True)","[PeriodicSite: Tl (0.0, 7.618, 5.358) [0.9941, 0.9941, 0.99], PeriodicSite: In (0.0, 3.85, 2.777) [0.5024, 0.5024, 0.5131], PeriodicSite: Cl (-1.926, 1.933, 2.824) [0.000828, 0.5034, 0.5218], PeriodicSite: Cl (0.0, 3.897, 0.08483) [0.5088, 0.5088, 0.01568], PeriodicSite: Cl (1.926, 1.933, 2.824) [0.5034, 0.000828, 0.5218]]",158.854574053747,"[Element Tl, Element In, Element Cl, Element Cl, Element Cl]",False,False,-1.3173467766666664,0.0646634925000007,0.0
1473,mp,mp-674981.cif,Ag3 S1 I1,Ag3SI,Pm,4.876098,5.020287,5.059902650794776,87.61947899250855,90.0,90.0,"(True, True, True)","[PeriodicSite: Ag (0.0, 2.773, 4.474) [0.0, 0.5153, 0.8851], PeriodicSite: Ag (2.438, 5.03, 0.6985) [0.5, 0.9962, 0.1382], PeriodicSite: Ag (0.0, 0.657, 2.447) [0.0, 0.1106, 0.4839], PeriodicSite: S (0.0, 0.2176, 5.01) [0.0, 0.001854, 0.9909], PeriodicSite: I (2.438, 2.646, 2.538) [0.5, 0.5061, 0.5019]]",123.75654559214739,"[Element Ag, Element Ag, Element Ag, Element S, Element I]",False,False,-0.2666068646250004,0.06825934100000053,0.26239999999999997
1474,mp,mp-998739.cif,Mg1 Tl1 F3,MgTlF3,Amm2,4.0777366434693985,4.07704487882767,4.074990023533025,90.0017004734871,89.96497646930888,89.99560641003495,"(True, True, True)","[PeriodicSite: Mg (-2.032, -1.967, -2.06) [0.4869, 0.5, 0.4992], PeriodicSite: Tl (-4.065, -3.992, -4.115) [0.988, 1.0, 0.9974], PeriodicSite: F (0.006045, -1.976, -2.044) [0.4886, 2.716e-05, 0.4973], PeriodicSite: F (-2.034, -4.01, -2.07) [0.9879, 0.5, 0.4974], PeriodicSite: F (-2.024, -1.957, -4.095) [0.4886, 0.5, 0.9987]]",67.74716609914387,"[Element Mg, Element Tl, Element F, Element F, Element F]",True,False,-3.0852172061666665,0.0,4.2135
1475,mp,mp-977176.cif,Na1 Tc1 O3,NaTcO3,Pm-3m,3.81537391,3.81537391,3.81537391,90.0,90.0,90.0,"(True, True, True)","[PeriodicSite: Na (0.0, 0.0, 0.0) [0.0, 0.0, 0.0], PeriodicSite: Tc (1.908, 1.908, 1.908) [0.5, 0.5, 0.5], PeriodicSite: O (1.908, 1.908, 0.0) [0.5, 0.5, 0.0], PeriodicSite: O (1.908, 0.0, 1.908) [0.5, 0.0, 0.5], PeriodicSite: O (0.0, 1.908, 1.908) [0.0, 0.5, 0.5]]",55.54069588597196,"[Element Na, Element Tc, Element O, Element O, Element O]",True,False,-1.9766675135603449,0.0,0.0
1476,mp,mp-21280.cif,Ba1 Pb1 O3,BaPbO3,Pm-3m,4.362221,4.362221,4.362221,90.0,90.0,90.0,"(True, True, True)","[PeriodicSite: Ba (2.181, 2.181, 2.181) [0.5, 0.5, 0.5], PeriodicSite: Pb (0.0, 0.0, 0.0) [0.0, 0.0, 0.0], PeriodicSite: O (0.0, 2.181, 0.0) [0.0, 0.5, 0.0], PeriodicSite: O (0.0, 0.0, 2.181) [0.0, 0.0, 0.5], PeriodicSite: O (2.181, 0.0, 0.0) [0.5, 0.0, 0.0]]",83.00858149731611,"[Element Ba, Element Pb, Element O, Element O, Element O]",False,False,-2.0825948652499995,0.02701866400000341,0.0
1477,mp,mp-984082.cif,Cs1 Gd1 O3,CsGdO3,Pm-3m,4.545455,4.545455,4.545455,90.0,90.0,90.0,"(True, True, True)","[PeriodicSite: Cs (0.0, 0.0, 0.0) [0.0, 0.0, 0.0], PeriodicSite: Gd (2.273, 2.273, 2.273) [0.5, 0.5, 0.5], PeriodicSite: O (2.273, 2.273, 0.0) [0.5, 0.5, 0.0], PeriodicSite: O (2.273, 0.0, 2.273) [0.5, 0.0, 0.5], PeriodicSite: O (0.0, 2.273, 2.273) [0.0, 0.5, 0.5]]",93.91437828700504,"[Element Cs, Element Gd, Element O, Element O, Element O]",False,True,-2.2696147848362065,0.2189109054999996,0.0
1478,mp,mp-998157.cif,Rb1 Sn1 Br3,RbSnBr3,P1,5.877776900895096,5.876641046802041,5.967052678590076,88.9579547690568,87.43691012648453,90.26964235336203,"(True, True, True)","[PeriodicSite: Rb (0.1161, 0.09094, 0.4517) [0.01777, 0.01457, 0.07532], PeriodicSite: Sn (2.985, 2.927, 2.836) [0.4961, 0.494, 0.4638], PeriodicSite: Br (2.897, 2.776, 0.0849) [0.4933, 0.4743, 0.002619], PeriodicSite: Br (2.956, 5.726, 2.738) [0.4923, 0.9706, 0.4447], PeriodicSite: Br (5.77, 2.93, 2.768) [0.9706, 0.4966, 0.4436]]",205.86806440407298,"[Element Rb, Element Sn, Element Br, Element Br, Element Br]",False,False,-1.5628369485,0.01113782650000017,0.6010000000000002
1479,mp,mp-7167.cif,Sm1 Rh3 C1,SmRh3C,Pm-3m,4.18469494,4.18469494,4.18469494,90.0,90.0,90.0,"(True, True, True)","[PeriodicSite: Sm (0.0, 0.0, 0.0) [-0.0, 0.0, -0.0], PeriodicSite: Rh (0.0, 2.092, 2.092) [0.0, 0.5, 0.5], PeriodicSite: Rh (2.092, 2.092, 0.0) [0.5, 0.5, 0.0], PeriodicSite: Rh (2.092, 0.0, 2.092) [0.5, 0.0, 0.5], PeriodicSite: C (2.092, 2.092, 2.092) [0.5, 0.5, 0.5]]",73.28100412492455,"[Element Sm, Element Rh, Element Rh, Element Rh, Element C]",True,False,-0.43266977850000077,0.0,0.0