,provider,id,Full_Formula,formula,space_group,a_lattice_param,b_lattice_param,c_lattice_param,aplha_degree,beta_degree,gamma_degree,pbc,sits,volume,species_at_sites,is_stable,is_magnetic,formation_energy,energy_above_hull,band_gap
299,mp,mp-1016882.cif,Cd1 Os1 O3,CdOsO3,Pm-3m,3.942935,3.942935,3.942935,90.0,90.0,90.0,"(True, True, True)","[PeriodicSite: Cd (0.0, 0.0, 0.0) [0.0, 0.0, 0.0], PeriodicSite: Os (1.971, 1.971, 1.971) [0.5, 0.5, 0.5], PeriodicSite: O (1.971, 1.971, 0.0) [0.5, 0.5, 0.0], PeriodicSite: O (1.971, 0.0, 1.971) [0.5, 0.0, 0.5], PeriodicSite: O (0.0, 1.971, 1.971) [0.0, 0.5, 0.5]]",61.29977114342224,"[Element Cd, Element Os, Element O, Element O, Element O]",False,False,-1.0431842912500002,0.35957308520000364,0.0
300,mp,mp-1187192.cif,Sr1 Sb1 O3,SrSbO3,Pm-3m,4.208672,4.208672,4.208672,90.0,90.0,90.0,"(True, True, True)","[PeriodicSite: Sr (0.0, 0.0, 0.0) [0.0, 0.0, 0.0], PeriodicSite: Sb (2.104, 2.104, 2.104) [0.5, 0.5, 0.5], PeriodicSite: O (2.104, 2.104, 0.0) [0.5, 0.5, 0.0], PeriodicSite: O (2.104, 0.0, 2.104) [0.5, 0.0, 0.5], PeriodicSite: O (0.0, 2.104, 2.104) [0.0, 0.5, 0.5]]",74.54787045732388,"[Element Sr, Element Sb, Element O, Element O, Element O]",False,False,-2.3769566005833327,0.1320984408000001,0.0
301,mp,mp-1210597.cif,Mn3 As1 N1,Mn3AsN,P4/mmm,4.602155,4.602155,4.35962,90.0,90.0,90.0,"(True, True, True)","[PeriodicSite: Mn (2.301, 0.0, 0.0) [0.5, 0.0, 0.0], PeriodicSite: Mn (0.0, 2.301, 0.0) [0.0, 0.5, 0.0], PeriodicSite: Mn (0.0, 0.0, 2.18) [0.0, 0.0, 0.5], PeriodicSite: As (0.0, 0.0, 0.0) [0.0, 0.0, 0.0], PeriodicSite: N (2.301, 2.301, 2.18) [0.5, 0.5, 0.5]]",92.33601327230426,"[Element Mn, Element Mn, Element Mn, Element As, Element N]",False,True,1.5367225752413802,1.8872294905000002,0.0
302,mp,mp-1076534.cif,Rb1 Ta1 O3,RbTaO3,Pm-3m,4.07122,4.07122,4.07122,90.0,90.0,90.0,"(True, True, True)","[PeriodicSite: Rb (2.036, 2.036, 2.036) [0.5, 0.5, 0.5], PeriodicSite: Ta (0.0, 0.0, 0.0) [0.0, 0.0, 0.0], PeriodicSite: O (2.036, 0.0, 0.0) [0.5, 0.0, 0.0], PeriodicSite: O (0.0, 2.036, 0.0) [0.0, 0.5, 0.0], PeriodicSite: O (0.0, 0.0, 2.036) [0.0, 0.0, 0.5]]",67.47978870917987,"[Element Rb, Element Ta, Element O, Element O, Element O]",False,False,-2.97826306475,0.05666227350001485,2.0023999999999997
303,mp,mp-1017447.cif,Hg1 Ge1 O3,HgGeO3,Pm-3m,3.82031,3.82031,3.82031,90.0,90.0,90.0,"(True, True, True)","[PeriodicSite: Hg (0.0, 0.0, 0.0) [0.0, 0.0, 0.0], PeriodicSite: Ge (1.91, 1.91, 1.91) [0.5, 0.5, 0.5], PeriodicSite: O (1.91, 1.91, 0.0) [0.5, 0.5, 0.0], PeriodicSite: O (1.91, 0.0, 1.91) [0.5, 0.0, 0.5], PeriodicSite: O (0.0, 1.91, 1.91) [0.0, 0.5, 0.5]]",55.756540033335796,"[Element Hg, Element Ge, Element O, Element O, Element O]",False,False,-1.1747239492499992,0.3422496971666691,0.0
304,mp,mp-1040469.cif,K1 Mo1 O3,KMoO3,Pm-3m,4.00482,4.00482,4.00482,90.0,90.0,90.0,"(True, True, True)","[PeriodicSite: K (2.002, 2.002, 2.002) [0.5, 0.5, 0.5], PeriodicSite: Mo (0.0, 0.0, 0.0) [0.0, 0.0, 0.0], PeriodicSite: O (2.002, 0.0, 0.0) [0.5, 0.0, 0.0], PeriodicSite: O (0.0, 2.002, 0.0) [0.0, 0.5, 0.0], PeriodicSite: O (0.0, 0.0, 2.002) [0.0, 0.0, 0.5]]",64.23163890078015,"[Element K, Element Mo, Element O, Element O, Element O]",False,True,-2.0475135838499994,0.10687497300000093,0.0
305,mp,mp-1183449.cif,Be1 V1 O3,BeVO3,Pm-3m,3.428947,3.428947,3.428947,90.0,90.0,90.0,"(True, True, True)","[PeriodicSite: Be (1.714, 1.714, 1.714) [0.5, 0.5, 0.5], PeriodicSite: V (0.0, 0.0, 0.0) [0.0, 0.0, 0.0], PeriodicSite: O (1.714, 1.714, 0.0) [0.5, 0.5, 0.0], PeriodicSite: O (1.714, 0.0, 1.714) [0.5, 0.0, 0.5], PeriodicSite: O (0.0, 1.714, 1.714) [0.0, 0.5, 0.5]]",40.316453089377035,"[Element Be, Element V, Element O, Element O, Element O]",False,True,-1.7107932382500004,1.019277878000004,0.0
306,mp,mp-1206777.cif,Mn3 As1 N1,Mn3AsN,Pm-3m,4.803102,4.803102,4.803102,90.0,90.0,90.0,"(True, True, True)","[PeriodicSite: Mn (0.0, 2.402, 0.0) [0.0, 0.5, 0.0], PeriodicSite: Mn (2.402, 0.0, 0.0) [0.5, 0.0, 0.0], PeriodicSite: Mn (0.0, 0.0, 2.402) [0.0, 0.0, 0.5], PeriodicSite: As (0.0, 0.0, 0.0) [0.0, 0.0, 0.0], PeriodicSite: N (2.402, 2.402, 2.402) [0.5, 0.5, 0.5]]",110.80654883246629,"[Element Mn, Element Mn, Element Mn, Element As, Element N]",False,True,1.4798586852413806,1.8303656005000004,0.0
307,mp,mp-1110854.cif,K1 Au1 Cl3,KAuCl3,Pm-3m,5.138475,5.138475,5.138475,90.0,90.0,90.0,"(True, True, True)","[PeriodicSite: K (2.569, 2.569, 2.569) [0.5, 0.5, 0.5], PeriodicSite: Au (0.0, 0.0, 0.0) [0.0, 0.0, 0.0], PeriodicSite: Cl (2.569, 0.0, 0.0) [0.5, 0.0, 0.0], PeriodicSite: Cl (0.0, 0.0, 2.569) [0.0, 0.0, 0.5], PeriodicSite: Cl (0.0, 2.569, 0.0) [0.0, 0.5, 0.0]]",135.6759101875909,"[Element K, Element Au, Element Cl, Element Cl, Element Cl]",False,False,-1.2960581726,0.06261348466666572,0.0
308,mp,mp-1068239.cif,Sr1 Ge3 Pt1,SrGe3Pt,I4mm,5.982998347227447,5.982998347227447,5.982998347227447,135.68324049000236,135.68324049000236,64.47043234910223,"(True, True, True)","[PeriodicSite: Sr (0.0, 0.0, 0.00497) [0.000491, 0.000491, 0.0], PeriodicSite: Ge (2.257, 0.0, 2.588) [0.2557, 0.7557, 0.5], PeriodicSite: Ge (0.0, 2.257, 2.588) [0.7557, 0.2557, 0.5], PeriodicSite: Ge (0.0, 0.0, 4.065) [0.4016, 0.4016, -0.0], PeriodicSite: Pt (0.0, 0.0, 6.545) [0.6466, 0.6466, 0.0]]",103.08320379730172,"[Element Sr, Element Ge, Element Ge, Element Ge, Element Pt]",True,False,-0.6213242243333326,0.0,0.0
309,mp,mp-1186993.cif,Sc1 Si1 O3,ScSiO3,Pm-3m,3.582486,3.582486,3.582486,90.0,90.0,90.0,"(True, True, True)","[PeriodicSite: Sc (0.0, 0.0, 0.0) [0.0, 0.0, 0.0], PeriodicSite: Si (1.791, 1.791, 1.791) [0.5, 0.5, 0.5], PeriodicSite: O (1.791, 1.791, 0.0) [0.5, 0.5, 0.0], PeriodicSite: O (1.791, 0.0, 1.791) [0.5, 0.0, 0.5], PeriodicSite: O (0.0, 1.791, 1.791) [0.0, 0.5, 0.5]]",45.978363101869,"[Element Sc, Element Si, Element O, Element O, Element O]",False,False,-2.76517236225,0.7078265899687484,0.0
310,mp,mp-1183934.cif,Cs1 Ba1 O3,CsBaO3,Pm-3m,5.030816,5.030816,5.030816,90.0,90.0,90.0,"(True, True, True)","[PeriodicSite: Cs (0.0, 0.0, 0.0) [0.0, 0.0, 0.0], PeriodicSite: Ba (2.515, 2.515, 2.515) [0.5, 0.5, 0.5], PeriodicSite: O (2.515, 2.515, 0.0) [0.5, 0.5, 0.0], PeriodicSite: O (2.515, 0.0, 2.515) [0.5, 0.0, 0.5], PeriodicSite: O (0.0, 2.515, 2.515) [0.0, 0.5, 0.5]]",127.32547365151035,"[Element Cs, Element Ba, Element O, Element O, Element O]",False,True,-1.311320564836207,0.4837627900000001,0.0
311,mp,mp-10675.cif,Ti3 Al1 N1,Ti3AlN,Pm-3m,4.11698988,4.11703682,4.11699906,90.0,90.0,90.0,"(True, True, True)","[PeriodicSite: Ti (2.058, 0.0, 2.058) [0.5, -0.0, 0.5], PeriodicSite: Ti (2.058, 2.059, 0.0) [0.5, 0.5, -0.0], PeriodicSite: Ti (0.0, 2.059, 2.058) [-0.0, 0.5, 0.5], PeriodicSite: Al (0.0, 0.0, 0.0) [0.0, -0.0, -0.0], PeriodicSite: N (2.058, 2.059, 2.058) [0.5, 0.5, 0.5]]",69.78230623535126,"[Element Ti, Element Ti, Element Ti, Element Al, Element N]",False,False,-1.0178718549999999,0.016364957333333763,0.0
312,mp,mp-13125.cif,Pr1 Co1 Ge3,PrCoGe3,I4mm,5.787387693818644,5.787387693818644,5.787387693818644,136.29539469976237,136.29539469976237,63.52397955623566,"(True, True, True)","[PeriodicSite: Pr (0.0, 0.0, 4.255) [0.4324, 0.4324, 0.0], PeriodicSite: Co (0.0, 0.0, 7.541) [0.7663, 0.7663, -0.0], PeriodicSite: Ge (2.154, -2.22e-16, 1.713) [0.1741, 0.6741, 0.5], PeriodicSite: Ge (0.0, 0.0, 9.82) [0.9978, 0.9978, -0.0], PeriodicSite: Ge (-2.22e-16, 2.154, 1.713) [0.6741, 0.1741, 0.5]]",91.33529829915938,"[Element Pr, Element Co, Element Ge, Element Ge, Element Ge]",True,False,-0.5694743289999998,0.0,0.0
313,mp,mp-1111644.cif,Rb1 Au1 F3,RbAuF3,Pm-3m,4.514405,4.514405,4.514405,90.0,90.0,90.0,"(True, True, True)","[PeriodicSite: Rb (2.257, 2.257, 2.257) [0.5, 0.5, 0.5], PeriodicSite: Au (0.0, 0.0, 0.0) [0.0, 0.0, 0.0], PeriodicSite: F (2.257, 0.0, 0.0) [0.5, 0.0, 0.0], PeriodicSite: F (0.0, 0.0, 2.257) [0.0, 0.0, 0.5], PeriodicSite: F (0.0, 2.257, 0.0) [0.0, 0.5, 0.0]]",92.00290804343298,"[Element Rb, Element Au, Element F, Element F, Element F]",False,False,-1.9138878409999998,0.1265957406666658,0.0
314,mp,mp-1016877.cif,Hg1 Rh1 O3,HgRhO3,Pm-3m,3.970706,3.970706,3.970706,90.0,90.0,90.0,"(True, True, True)","[PeriodicSite: Hg (0.0, 0.0, 0.0) [0.0, 0.0, 0.0], PeriodicSite: Rh (1.985, 1.985, 1.985) [0.5, 0.5, 0.5], PeriodicSite: O (1.985, 1.985, 0.0) [0.5, 0.5, 0.0], PeriodicSite: O (1.985, 0.0, 1.985) [0.5, 0.0, 0.5], PeriodicSite: O (0.0, 1.985, 1.985) [0.0, 0.5, 0.5]]",62.604160522924644,"[Element Hg, Element Rh, Element O, Element O, Element O]",False,True,-0.5780080882500002,0.40934945250000077,0.0
315,mp,mp-1226613.cif,Ce1 Ga3 Cu1,CeGa3Cu,I-4m2,6.024622254201811,6.024622254201811,6.024622254201811,139.21275028617939,139.21275028617939,59.05059915220008,"(True, True, True)","[PeriodicSite: Ce (0.0, 0.0, 0.0) [0.0, 0.0, 0.0], PeriodicSite: Ga (0.0, 0.0, 6.483) [0.6183, 0.6183, -0.0], PeriodicSite: Ga (0.0, 0.0, 4.002) [0.3817, 0.3817, 0.0], PeriodicSite: Ga (0.0, 2.099, 2.621) [0.75, 0.25, 0.5], PeriodicSite: Cu (2.099, 0.0, 2.621) [0.25, 0.75, 0.5]]",92.41934321990689,"[Element Ce, Element Ga, Element Ga, Element Ga, Element Cu]",False,True,-0.44947020549999905,0.0008820991666649292,0.0
316,mp,mp-1220986.cif,Na1 N1 O3,NaNO3,R32,4.066763369017201,4.066763369017201,4.0667640107918634,75.98976214572065,75.98976214572065,75.98975767559389,"(True, True, True)","[PeriodicSite: Na (0.0, 0.0, 0.0) [-0.0, 0.0, -0.0], PeriodicSite: N (3.825, 0.0, 1.943) [0.5, 0.5, 0.5], PeriodicSite: O (3.332, 0.6295, 2.915) [0.2486, 0.5, 0.7514], PeriodicSite: O (3.825, -1.259, 1.943) [0.7514, 0.2486, 0.5], PeriodicSite: O (4.319, 0.6295, 0.9712) [0.5, 0.7514, 0.2486]]",62.10209025539654,"[Element Na, Element N, Element O, Element O, Element O]",False,False,-1.3570725555603445,0.011083451000000188,2.8579
317,mp,mp-1183431.cif,Be1 Os1 O3,BeOsO3,Pm-3m,3.437481,3.437481,3.437481,90.0,90.0,90.0,"(True, True, True)","[PeriodicSite: Be (1.719, 1.719, 1.719) [0.5, 0.5, 0.5], PeriodicSite: Os (0.0, 0.0, 0.0) [0.0, 0.0, 0.0], PeriodicSite: O (1.719, 1.719, 0.0) [0.5, 0.5, 0.0], PeriodicSite: O (1.719, 0.0, 1.719) [0.5, 0.0, 0.5], PeriodicSite: O (0.0, 1.719, 1.719) [0.0, 0.5, 0.5]]",40.61822295294155,"[Element Be, Element Os, Element O, Element O, Element O]",False,False,-0.7469445742499999,1.3010016449999968,0.0
318,mp,mp-1183169.cif,Al1 Ag1 O3,AlAgO3,Pm-3m,3.751028,3.751028,3.751028,90.0,90.0,90.0,"(True, True, True)","[PeriodicSite: Al (0.0, 0.0, 0.0) [0.0, 0.0, 0.0], PeriodicSite: Ag (1.876, 1.876, 1.876) [0.5, 0.5, 0.5], PeriodicSite: O (0.0, 0.0, 1.876) [0.0, 0.0, 0.5], PeriodicSite: O (0.0, 1.876, 0.0) [0.0, 0.5, 0.0], PeriodicSite: O (1.876, 0.0, 0.0) [0.5, 0.0, 0.0]]",52.77775563990637,"[Element Al, Element Ag, Element O, Element O, Element O]",False,True,-1.6178594265833333,0.3398944426439403,0.0
319,mp,mp-1213745.cif,Co1 N1 F3,CoNF3,Pm-3m,3.767843,3.767843,3.767843,90.0,90.0,90.0,"(True, True, True)","[PeriodicSite: Co (0.0, 0.0, 0.0) [0.0, 0.0, 0.0], PeriodicSite: N (1.884, 1.884, 1.884) [0.5, 0.5, 0.5], PeriodicSite: F (1.884, 0.0, 0.0) [0.5, 0.0, 0.0], PeriodicSite: F (0.0, 1.884, 0.0) [0.0, 0.5, 0.0], PeriodicSite: F (0.0, 0.0, 1.884) [0.0, 0.0, 0.5]]",53.490713935524425,"[Element Co, Element N, Element F, Element F, Element F]",False,True,-0.39273104550000043,1.3344558905000046,0.0
320,mp,mp-1186106.cif,Mo1 Pb1 O3,MoPbO3,Pm-3m,4.107546,4.107546,4.107546,90.0,90.0,90.0,"(True, True, True)","[PeriodicSite: Mo (2.054, 2.054, 2.054) [0.5, 0.5, 0.5], PeriodicSite: Pb (0.0, 0.0, 0.0) [0.0, 0.0, 0.0], PeriodicSite: O (2.054, 2.054, 0.0) [0.5, 0.5, 0.0], PeriodicSite: O (2.054, 0.0, 2.054) [0.5, 0.0, 0.5], PeriodicSite: O (0.0, 2.054, 2.054) [0.0, 0.5, 0.5]]",69.30224559771202,"[Element Mo, Element Pb, Element O, Element O, Element O]",False,True,-1.683934785249999,0.11739229681250318,0.0
321,mp,mp-1187862.cif,Y1 Si1 O3,YSiO3,Pm-3m,3.723507,3.723507,3.723507,90.0,90.0,90.0,"(True, True, True)","[PeriodicSite: Y (0.0, 0.0, 0.0) [0.0, 0.0, 0.0], PeriodicSite: Si (1.862, 1.862, 1.862) [0.5, 0.5, 0.5], PeriodicSite: O (1.862, 1.862, 0.0) [0.5, 0.5, 0.0], PeriodicSite: O (1.862, 0.0, 1.862) [0.5, 0.0, 0.5], PeriodicSite: O (0.0, 1.862, 1.862) [0.0, 0.5, 0.5]]",51.624579106919604,"[Element Y, Element Si, Element O, Element O, Element O]",False,False,-2.8044312045833335,0.7363874534166612,0.0
322,mp,mp-1069477.cif,Gd1 Si3 Ir1,GdSi3Ir,I4mm,4.211714,4.211714,5.745584376884478,111.50099974557486,111.50099974557486,90.0,"(True, True, True)","[PeriodicSite: Gd (0.0, 0.0, 0.006486) [0.00066, 0.00066, 0.00132], PeriodicSite: Si (2.106, 2.106, 0.8336) [0.5848, 0.5848, 0.1696], PeriodicSite: Si (2.106, 0.0, 2.309) [0.7349, 0.2349, 0.4699], PeriodicSite: Si (0.0, 2.106, 2.309) [0.2349, 0.7349, 0.4699], PeriodicSite: Ir (0.0, 0.0, 3.402) [0.3462, 0.3462, 0.6923]]",87.15827308870581,"[Element Gd, Element Si, Element Si, Element Si, Element Ir]",True,True,-0.8128054280000014,0.0,0.0
323,mp,mp-1218359.cif,Sr1 Al3 Ag1,SrAl3Ag,I4mm,4.311460144505666,4.311459144505689,6.586643957644776,70.93354533935646,70.93354555177294,90.09816395518932,"(True, True, True)","[PeriodicSite: Sr (4.308, 4.308, 0.009315) [0.9991, 0.9991, 0.001646], PeriodicSite: Al (4.31, 2.151, 2.929) [0.7494, 0.2491, 0.5016], PeriodicSite: Al (2.151, 4.31, 2.929) [0.2491, 0.7494, 0.5016], PeriodicSite: Al (2.154, 2.154, 1.313) [0.3876, 0.3876, 0.2248], PeriodicSite: Ag (4.308, 4.308, 4.498) [0.6149, 0.6149, 0.7703]]",108.56320239854425,"[Element Sr, Element Al, Element Al, Element Al, Element Ag]",True,False,-0.28075237266666664,0.0,0.0
324,mp,mp-1222853.cif,La1 Ga3 Cu1,LaGa3Cu,I-4m2,6.059352813685823,6.059352813685823,6.059352813685823,138.9023299142987,138.9023299142987,59.523810716600835,"(True, True, True)","[PeriodicSite: La (0.0, 0.0, 0.0) [-0.0, -0.0, 0.0], PeriodicSite: Ga (0.0, 0.0, 6.522) [0.62, 0.62, -0.0], PeriodicSite: Ga (0.0, 0.0, 3.998) [0.38, 0.38, -0.0], PeriodicSite: Ga (0.0, 2.127, 2.63) [0.75, 0.25, 0.5], PeriodicSite: Cu (2.127, 0.0, 2.63) [0.25, 0.75, 0.5]]",95.17752940535883,"[Element La, Element Ga, Element Ga, Element Ga, Element Cu]",True,False,-0.5282281054999999,0.0,0.0
325,mp,mp-1097916.cif,Cs1 Ca1 Cl3,CsCaCl3,P1,5.420258543704911,5.4173380506811535,5.416346015991925,90.00570167310903,89.97678313225016,90.0130572025564,"(True, True, True)","[PeriodicSite: Cs (0.001865, 0.05009, 0.01077) [0.0003415, 0.009247, 0.001986], PeriodicSite: Ca (2.712, 2.774, 2.718) [0.4999, 0.5123, 0.5017], PeriodicSite: Cl (5.422, 2.781, 2.733) [0.9999, 0.5139, 0.5047], PeriodicSite: Cl (2.702, 0.06396, 2.707) [0.4982, 0.01216, 0.4998], PeriodicSite: Cl (2.719, 2.775, 0.009787) [0.5016, 0.5123, 0.001779]]",159.04216959735564,"[Element Cs, Element Ca, Element Cl, Element Cl, Element Cl]",True,False,-2.6423494315862066,0.0,5.3331
326,mp,mp-1433326.cif,Y1 Ni1 O3,YNiO3,Pm-3m,3.756882,3.756882,3.756882,90.0,90.0,90.0,"(True, True, True)","[PeriodicSite: Y (0.0, 0.0, 0.0) [0.0, 0.0, 0.0], PeriodicSite: Ni (1.878, 1.878, 1.878) [0.5, 0.5, 0.5], PeriodicSite: O (1.878, 1.878, 0.0) [0.5, 0.5, 0.0], PeriodicSite: O (1.878, 0.0, 1.878) [0.5, 0.0, 0.5], PeriodicSite: O (0.0, 1.878, 1.878) [0.0, 0.5, 0.5]]",53.025242522589764,"[Element Y, Element Ni, Element O, Element O, Element O]",False,True,-2.265035316583332,0.2099643790000023,0.0
327,mp,mp-1183418.cif,Be1 Cd1 O3,BeCdO3,Pm-3m,3.615159,3.615159,3.615159,90.0,90.0,90.0,"(True, True, True)","[PeriodicSite: Be (1.808, 1.808, 1.808) [0.5, 0.5, 0.5], PeriodicSite: Cd (0.0, 0.0, 0.0) [0.0, 0.0, 0.0], PeriodicSite: O (1.808, 1.808, 0.0) [0.5, 0.5, 0.0], PeriodicSite: O (1.808, 0.0, 1.808) [0.5, 0.0, 0.5], PeriodicSite: O (0.0, 1.808, 1.808) [0.0, 0.5, 0.5]]",47.24786719250145,"[Element Be, Element Cd, Element O, Element O, Element O]",False,True,-1.2715821742500004,0.515953689249999,0.0
328,mp,mp-1206994.cif,La3 Sn1 N1,La3SnN,Pm-3m,5.10650318,5.10651462,5.10650942,90.0,90.0,90.0,"(True, True, True)","[PeriodicSite: La (2.553, 0.0, 0.0) [0.5, -0.0, -0.0], PeriodicSite: La (0.0, 2.553, 0.0) [-0.0, 0.5, -0.0], PeriodicSite: La (0.0, 0.0, 2.553) [0.0, -0.0, 0.5], PeriodicSite: Sn (2.553, 2.553, 2.553) [0.5, 0.5, 0.5], PeriodicSite: N (0.0, 0.0, 0.0) [-0.0, -0.0, -0.0]]",133.15955149875467,"[Element La, Element La, Element La, Element Sn, Element N]",True,False,-1.0749282469999997,0.0,0.0
329,mp,mp-13122.cif,Ce1 Ge3 Ir1,CeGe3Ir,I4mm,4.418200719425939,4.418200412270103,5.924727067985439,111.89217485427197,111.89216797719767,89.99999199532714,"(True, True, True)","[PeriodicSite: Ce (1.986, 2.338, -0.9815) [0.5779, 0.5779, 0.1558], PeriodicSite: Ge (3.232, 1.391, 2.116) [0.8437, 0.3437, 0.6875], PeriodicSite: Ge (0.8507, 3.414, 2.116) [0.3437, 0.8437, 0.6875], PeriodicSite: Ge (0.003724, 0.004384, 0.00927) [0.001083, 0.001083, 0.002167], PeriodicSite: Ir (0.8225, 0.9682, 2.046) [0.2392, 0.2392, 0.4784]]",98.26810401425148,"[Element Ce, Element Ge, Element Ge, Element Ge, Element Ir]",True,True,-0.6556120559999996,0.0,0.0
330,mp,mp-1185356.cif,Li1 Mg1 O3,LiMgO3,Pm-3m,3.96983,3.96983,3.96983,90.0,90.0,90.0,"(True, True, True)","[PeriodicSite: Li (0.0, 0.0, 0.0) [0.0, 0.0, 0.0], PeriodicSite: Mg (1.985, 1.985, 1.985) [0.5, 0.5, 0.5], PeriodicSite: O (1.985, 1.985, 0.0) [0.5, 0.5, 0.0], PeriodicSite: O (1.985, 0.0, 1.985) [0.5, 0.0, 0.5], PeriodicSite: O (0.0, 1.985, 1.985) [0.0, 0.5, 0.5]]",62.56273528519409,"[Element Li, Element Mg, Element O, Element O, Element O]",False,True,-1.3176105319166667,0.5801049234285722,0.0
331,mp,mp-10716.cif,Yb1 Rh3 C1,YbRh3C,Pm-3m,4.09281279,4.09281279,4.09277898,90.0,90.0,90.0,"(True, True, True)","[PeriodicSite: Yb (0.0, 0.0, 0.0) [-0.0, -0.0, -0.0], PeriodicSite: Rh (0.0, 2.046, 2.046) [0.0, 0.5, 0.5], PeriodicSite: Rh (2.046, 2.046, 0.0) [0.5, 0.5, 0.0], PeriodicSite: Rh (2.046, 0.0, 2.046) [0.5, -0.0, 0.5], PeriodicSite: C (2.046, 2.046, 2.046) [0.5, 0.5, 0.5]]",68.55861764183484,"[Element Yb, Element Rh, Element Rh, Element Rh, Element C]",True,False,-0.4140188295000016,0.0,0.0
332,mp,mp-1206130.cif,Cr1 Fe3 N1,CrFe3N,Pm-3m,3.80931,3.80931,3.80931,90.0,90.0,90.0,"(True, True, True)","[PeriodicSite: Cr (1.905, 1.905, 1.905) [0.5, 0.5, 0.5], PeriodicSite: Fe (1.905, 0.0, 0.0) [0.5, 0.0, 0.0], PeriodicSite: Fe (0.0, 1.905, 0.0) [0.0, 0.5, 0.0], PeriodicSite: Fe (0.0, 0.0, 1.905) [0.0, 0.0, 0.5], PeriodicSite: N (0.0, 0.0, 0.0) [0.0, 0.0, 0.0]]",55.27629811449449,"[Element Cr, Element Fe, Element Fe, Element Fe, Element N]",False,True,0.1094687289999996,0.38608341600000173,0.0
333,mp,mp-1016875.cif,Cd1 Rh1 O3,CdRhO3,Pm-3m,3.951587,3.951587,3.951587,90.0,90.0,90.0,"(True, True, True)","[PeriodicSite: Cd (0.0, 0.0, 0.0) [0.0, 0.0, 0.0], PeriodicSite: Rh (1.976, 1.976, 1.976) [0.5, 0.5, 0.5], PeriodicSite: O (1.976, 1.976, 0.0) [0.5, 0.5, 0.0], PeriodicSite: O (1.976, 0.0, 1.976) [0.5, 0.0, 0.5], PeriodicSite: O (0.0, 1.976, 1.976) [0.0, 0.5, 0.5]]",61.70418835153962,"[Element Cd, Element Rh, Element O, Element O, Element O]",False,True,-0.8539169532499997,0.4241038849999974,0.0
334,mp,mp-1186316.cif,Nd1 In1 O3,NdInO3,Pm-3m,4.155854,4.155854,4.155854,90.0,90.0,90.0,"(True, True, True)","[PeriodicSite: Nd (0.0, 0.0, 0.0) [0.0, 0.0, 0.0], PeriodicSite: In (2.078, 2.078, 2.078) [0.5, 0.5, 0.5], PeriodicSite: O (2.078, 2.078, 0.0) [0.5, 0.5, 0.0], PeriodicSite: O (2.078, 0.0, 2.078) [0.5, 0.0, 0.5], PeriodicSite: O (0.0, 2.078, 2.078) [0.0, 0.5, 0.5]]",71.77626339859677,"[Element Nd, Element In, Element O, Element O, Element O]",False,False,-2.4652225107499994,0.4248462327500002,1.6467999999999998
335,mp,mp-10881.cif,Ce3 Al1 N1,Ce3AlN,Pm-3m,4.90922468,4.90926019,4.90924297,90.0,90.0,90.0,"(True, True, True)","[PeriodicSite: Ce (0.0, 2.455, 2.455) [0.0, 0.5, 0.5], PeriodicSite: Ce (2.455, 0.0, 2.455) [0.5, 0.0, 0.5], PeriodicSite: Ce (2.455, 2.455, 0.0) [0.5, 0.5, 0.0], PeriodicSite: Al (0.0, 0.0, 0.0) [0.0, 0.0, -0.0], PeriodicSite: N (2.455, 2.455, 2.455) [0.5, 0.5, 0.5]]",118.31600198715861,"[Element Ce, Element Ce, Element Ce, Element Al, Element N]",True,True,-0.828505354,0.0,0.0