,provider,id,Full_Formula,formula,space_group,a_lattice_param,b_lattice_param,c_lattice_param,aplha_degree,beta_degree,gamma_degree,pbc,sits,volume,species_at_sites,is_stable,is_magnetic,formation_energy,energy_above_hull,band_gap
76,mp,mp-1013541.cif,Sr3 Sb1 As1,Sr3SbAs,Pm-3m,6.11,6.11,6.11,90.0,90.0,90.0,"(True, True, True)","[PeriodicSite: Sr (0.0, 3.055, 3.055) [0.0, 0.5, 0.5], PeriodicSite: Sr (3.055, 0.0, 3.055) [0.5, 0.0, 0.5], PeriodicSite: Sr (3.055, 3.055, 0.0) [0.5, 0.5, 0.0], PeriodicSite: Sb (3.055, 3.055, 3.055) [0.5, 0.5, 0.5], PeriodicSite: As (0.0, 0.0, 0.0) [0.0, 0.0, 0.0]]",228.09913100000003,"[Element Sr, Element Sr, Element Sr, Element Sb, Element As]",False,False,-0.4796002289999997,0.6171049647500007,0.0
77,mp,mp-1013564.cif,Sr3 Bi1 As1,Sr3BiAs,Pm-3m,5.88,5.88,5.88,90.0,90.0,90.0,"(True, True, True)","[PeriodicSite: Sr (0.0, 2.94, 2.94) [0.0, 0.5, 0.5], PeriodicSite: Sr (2.94, 0.0, 2.94) [0.5, 0.0, 0.5], PeriodicSite: Sr (2.94, 2.94, 0.0) [0.5, 0.5, 0.0], PeriodicSite: Bi (0.0, 0.0, 0.0) [0.0, 0.0, 0.0], PeriodicSite: As (2.94, 2.94, 2.94) [0.5, 0.5, 0.5]]",203.29747199999997,"[Element Sr, Element Sr, Element Sr, Element Bi, Element As]",False,False,-0.8867670029999999,0.11553418875000032,0.0
78,mp,mp-1186758.cif,Sr1 Tm1 O3,SrTmO3,Pm-3m,4.316318,4.316318,4.316318,90.0,90.0,90.0,"(True, True, True)","[PeriodicSite: Sr (0.0, 0.0, 0.0) [0.0, 0.0, 0.0], PeriodicSite: Tm (2.158, 2.158, 2.158) [0.5, 0.5, 0.5], PeriodicSite: O (2.158, 2.158, 0.0) [0.5, 0.5, 0.0], PeriodicSite: O (2.158, 0.0, 2.158) [0.5, 0.0, 0.5], PeriodicSite: O (0.0, 2.158, 2.158) [0.0, 0.5, 0.5]]",80.4155987800097,"[Element Sr, Element Tm, Element O, Element O, Element O]",False,True,-3.1220120719166666,0.20589536300000688,0.0
79,mp,mp-1185122.cif,La1 Sn1 O3,LaSnO3,Pm-3m,4.213459,4.213459,4.213459,90.0,90.0,90.0,"(True, True, True)","[PeriodicSite: La (0.0, 0.0, 0.0) [0.0, 0.0, 0.0], PeriodicSite: Sn (2.107, 2.107, 2.107) [0.5, 0.5, 0.5], PeriodicSite: O (2.107, 2.107, 0.0) [0.5, 0.5, 0.0], PeriodicSite: O (2.107, 0.0, 2.107) [0.5, 0.0, 0.5], PeriodicSite: O (0.0, 2.107, 2.107) [0.0, 0.5, 0.5]]",74.80253514100687,"[Element La, Element Sn, Element O, Element O, Element O]",False,False,-2.4485406372500007,0.5257415091562443,0.0
80,mp,mp-1186999.cif,Si1 Ag1 O3,SiAgO3,Pm-3m,3.621317,3.621317,3.621317,90.0,90.0,90.0,"(True, True, True)","[PeriodicSite: Si (0.0, 0.0, 0.0) [0.0, 0.0, 0.0], PeriodicSite: Ag (1.811, 1.811, 1.811) [0.5, 0.5, 0.5], PeriodicSite: O (0.0, 0.0, 1.811) [0.0, 0.0, 0.5], PeriodicSite: O (0.0, 1.811, 0.0) [0.0, 0.5, 0.0], PeriodicSite: O (1.811, 0.0, 0.0) [0.5, 0.0, 0.0]]",47.48972232323486,"[Element Si, Element Ag, Element O, Element O, Element O]",False,False,-1.6575271585833335,0.4815971060000024,0.0
81,mp,mp-1013537.cif,Sr3 As1 N1,Sr3AsN,Pm-3m,5.8,5.8,5.8,90.0,90.0,90.0,"(True, True, True)","[PeriodicSite: Sr (0.0, 2.9, 2.9) [0.0, 0.5, 0.5], PeriodicSite: Sr (2.9, 0.0, 2.9) [0.5, 0.0, 0.5], PeriodicSite: Sr (2.9, 2.9, 0.0) [0.5, 0.5, 0.0], PeriodicSite: As (2.9, 2.9, 2.9) [0.5, 0.5, 0.5], PeriodicSite: N (0.0, 0.0, 0.0) [0.0, 0.0, 0.0]]",195.112,"[Element Sr, Element Sr, Element Sr, Element As, Element N]",False,False,0.22432949000000021,1.1632821380000005,0.0
82,mp,mp-1183570.cif,Ca1 Hg1 O3,CaHgO3,Pm-3m,4.190761,4.190761,4.190761,90.0,90.0,90.0,"(True, True, True)","[PeriodicSite: Ca (0.0, 0.0, 0.0) [0.0, 0.0, 0.0], PeriodicSite: Hg (2.095, 2.095, 2.095) [0.5, 0.5, 0.5], PeriodicSite: O (2.095, 2.095, 0.0) [0.5, 0.5, 0.0], PeriodicSite: O (2.095, 0.0, 2.095) [0.5, 0.0, 0.5], PeriodicSite: O (0.0, 2.095, 2.095) [0.0, 0.5, 0.5]]",73.60014685629169,"[Element Ca, Element Hg, Element O, Element O, Element O]",False,False,-1.21396368025,0.46215648825000066,0.0
83,mp,mp-1206753.cif,Al1 Fe3 O1,AlFe3O,Pm-3m,4.113634,4.113634,4.113634,90.0,90.0,90.0,"(True, True, True)","[PeriodicSite: Al (2.057, 2.057, 2.057) [0.5, 0.5, 0.5], PeriodicSite: Fe (2.057, 0.0, 0.0) [0.5, 0.0, 0.0], PeriodicSite: Fe (0.0, 2.057, 0.0) [0.0, 0.5, 0.0], PeriodicSite: Fe (0.0, 0.0, 2.057) [0.0, 0.0, 0.5], PeriodicSite: O (0.0, 0.0, 0.0) [0.0, 0.0, 0.0]]",69.61085155162793,"[Element Al, Element Fe, Element Fe, Element Fe, Element O]",False,True,0.5424925942500003,1.7379689023333311,0.0
84,mp,mp-1187377.cif,Tb1 Te1 O3,TbTeO3,Pm-3m,4.270654,4.270654,4.270654,90.0,90.0,90.0,"(True, True, True)","[PeriodicSite: Tb (0.0, 0.0, 0.0) [0.0, 0.0, 0.0], PeriodicSite: Te (2.135, 2.135, 2.135) [0.5, 0.5, 0.5], PeriodicSite: O (2.135, 2.135, 0.0) [0.5, 0.5, 0.0], PeriodicSite: O (2.135, 0.0, 2.135) [0.5, 0.0, 0.5], PeriodicSite: O (0.0, 2.135, 2.135) [0.0, 0.5, 0.5]]",77.89026142912171,"[Element Tb, Element Te, Element O, Element O, Element O]",False,False,-1.6119142985833328,1.1028784879010445,0.0
85,mp,mp-1184359.cif,Eu1 Hg1 O3,EuHgO3,Pm-3m,4.240331,4.240331,4.240331,90.0,90.0,90.0,"(True, True, True)","[PeriodicSite: Eu (0.0, 0.0, 0.0) [0.0, 0.0, 0.0], PeriodicSite: Hg (2.12, 2.12, 2.12) [0.5, 0.5, 0.5], PeriodicSite: O (2.12, 2.12, 0.0) [0.5, 0.5, 0.0], PeriodicSite: O (2.12, 0.0, 2.12) [0.5, 0.0, 0.5], PeriodicSite: O (0.0, 2.12, 2.12) [0.0, 0.5, 0.5]]",76.2428771504522,"[Element Eu, Element Hg, Element O, Element O, Element O]",False,True,-1.4129563222500003,0.4351047004999984,0.0
86,mp,mp-1185236.cif,Li1 Tm1 O3,LiTmO3,Pm-3m,3.641522,3.641522,3.641522,90.0,90.0,90.0,"(True, True, True)","[PeriodicSite: Li (1.821, 1.821, 1.821) [0.5, 0.5, 0.5], PeriodicSite: Tm (0.0, 0.0, 0.0) [0.0, 0.0, 0.0], PeriodicSite: O (1.821, 1.821, 0.0) [0.5, 0.5, 0.0], PeriodicSite: O (1.821, 0.0, 1.821) [0.5, 0.0, 0.5], PeriodicSite: O (0.0, 1.821, 1.821) [0.0, 0.5, 0.5]]",48.28906697313098,"[Element Li, Element Tm, Element O, Element O, Element O]",False,True,-2.2260447492500006,0.4889175464642852,0.0
87,mp,mp-1187359.cif,Tb1 Os1 O3,TbOsO3,Pm-3m,3.963612,3.963612,3.963612,90.0,90.0,90.0,"(True, True, True)","[PeriodicSite: Tb (0.0, 0.0, 0.0) [0.0, 0.0, 0.0], PeriodicSite: Os (1.982, 1.982, 1.982) [0.5, 0.5, 0.5], PeriodicSite: O (1.982, 1.982, 0.0) [0.5, 0.5, 0.0], PeriodicSite: O (1.982, 0.0, 1.982) [0.5, 0.0, 0.5], PeriodicSite: O (0.0, 1.982, 1.982) [0.0, 0.5, 0.5]]",62.269216857666834,"[Element Tb, Element Os, Element O, Element O, Element O]",False,False,-1.88164873725,0.7268624563333272,0.0
88,mp,mp-1186357.cif,Np1 Ta1 O3,NpTaO3,Pm-3m,4.038472,4.038472,4.038472,90.0,90.0,90.0,"(True, True, True)","[PeriodicSite: Np (0.0, 0.0, 0.0) [0.0, 0.0, 0.0], PeriodicSite: Ta (2.019, 2.019, 2.019) [0.5, 0.5, 0.5], PeriodicSite: O (2.019, 2.019, 0.0) [0.5, 0.5, 0.0], PeriodicSite: O (2.019, 0.0, 2.019) [0.5, 0.0, 0.5], PeriodicSite: O (0.0, 2.019, 2.019) [0.0, 0.5, 0.5]]",65.86447407961451,"[Element Np, Element Ta, Element O, Element O, Element O]",False,True,-2.682346767,0.4130992662000015,0.0
89,mp,mp-1017439.cif,Sr1 Si1 O3,SrSiO3,Pm-3m,3.698902,3.698902,3.698902,90.0,90.0,90.0,"(True, True, True)","[PeriodicSite: Sr (0.0, 0.0, 0.0) [0.0, 0.0, 0.0], PeriodicSite: Si (1.849, 1.849, 1.849) [0.5, 0.5, 0.5], PeriodicSite: O (0.0, 1.849, 1.849) [0.0, 0.5, 0.5], PeriodicSite: O (1.849, 1.849, 0.0) [0.5, 0.5, 0.0], PeriodicSite: O (1.849, 0.0, 1.849) [0.5, 0.0, 0.5]]",50.607918520880645,"[Element Sr, Element Si, Element O, Element O, Element O]",False,False,-3.1183008465833337,0.32427592999999977,2.3830999999999998
90,mp,mp-1206443.cif,La3 Sn1 C1,La3SnC,Pm-3m,5.22029957,5.22029957,5.22029957,90.0,90.0,90.0,"(True, True, True)","[PeriodicSite: La (2.61, 0.0, 0.0) [0.5, 0.0, 0.0], PeriodicSite: La (0.0, 2.61, 0.0) [0.0, 0.5, 0.0], PeriodicSite: La (0.0, 0.0, 2.61) [-0.0, -0.0, 0.5], PeriodicSite: Sn (2.61, 2.61, 2.61) [0.5, 0.5, 0.5], PeriodicSite: C (0.0, 0.0, 0.0) [-0.0, -0.0, -0.0]]",142.26113781495349,"[Element La, Element La, Element La, Element Sn, Element C]",True,False,-0.4902788635000007,0.0,0.0
91,mp,mp-1069594.cif,La1 Si3 Ru1,LaSi3Ru,I4mm,5.824062573025654,5.824062573025654,5.824062573025654,137.03800750013076,137.03800750013076,62.37957667158852,"(True, True, True)","[PeriodicSite: La (0.0, 0.0, 9.957) [0.9993, 0.9993, -0.0], PeriodicSite: Si (0.0, 0.0, 4.162) [0.4177, 0.4177, 0.0], PeriodicSite: Si (2.133, 2.22e-16, 2.597) [0.2607, 0.7607, 0.5], PeriodicSite: Si (2.22e-16, 2.133, 2.597) [0.7607, 0.2607, 0.5], PeriodicSite: Ru (0.0, 0.0, 6.533) [0.6557, 0.6557, 0.0]]",90.64736860871403,"[Element La, Element Si, Element Si, Element Si, Element Ru]",True,False,-0.6777367390000002,0.0,0.0
92,mp,mp-1013543.cif,Ca3 As1 N1,Ca3AsN,Pm-3m,5.41143,5.41143,5.41143,90.0,90.0,90.0,"(True, True, True)","[PeriodicSite: Ca (0.0, 2.706, 2.706) [0.0, 0.5, 0.5], PeriodicSite: Ca (2.706, 0.0, 2.706) [0.5, 0.0, 0.5], PeriodicSite: Ca (2.706, 2.706, 0.0) [0.5, 0.5, 0.0], PeriodicSite: As (2.706, 2.706, 2.706) [0.5, 0.5, 0.5], PeriodicSite: N (0.0, 0.0, 0.0) [0.0, 0.0, 0.0]]",158.46601434065124,"[Element Ca, Element Ca, Element Ca, Element As, Element N]",False,False,0.16625983200000008,1.332137823,0.0
93,mp,mp-1016833.cif,Ca1 Rh1 O3,CaRhO3,Pm-3m,3.954209,3.954209,3.954209,90.0,90.0,90.0,"(True, True, True)","[PeriodicSite: Ca (0.0, 0.0, 0.0) [0.0, 0.0, 0.0], PeriodicSite: Rh (1.977, 1.977, 1.977) [0.5, 0.5, 0.5], PeriodicSite: O (1.977, 1.977, 0.0) [0.5, 0.5, 0.0], PeriodicSite: O (1.977, 0.0, 1.977) [0.5, 0.0, 0.5], PeriodicSite: O (0.0, 1.977, 1.977) [0.0, 0.5, 0.5]]",61.82709777288515,"[Element Ca, Element Rh, Element O, Element O, Element O]",False,True,-1.8364871972500005,0.257332476000002,0.0
94,mp,mp-1013585.cif,Sr3 Bi1 Sb1,Sr3BiSb,Pm-3m,6.163906,6.163906,6.163906,90.0,90.0,90.0,"(True, True, True)","[PeriodicSite: Sr (0.0, 3.082, 3.082) [0.0, 0.5, 0.5], PeriodicSite: Sr (3.082, 0.0, 3.082) [0.5, 0.0, 0.5], PeriodicSite: Sr (3.082, 3.082, 0.0) [0.5, 0.5, 0.0], PeriodicSite: Bi (0.0, 0.0, 0.0) [0.0, 0.0, 0.0], PeriodicSite: Sb (3.082, 3.082, 3.082) [0.5, 0.5, 0.5]]",234.18982454672246,"[Element Sr, Element Sr, Element Sr, Element Bi, Element Sb]",False,False,-0.6791841159999997,0.31015075699999395,0.0
95,mp,mp-1185529.cif,Lu1 Re1 O3,LuReO3,Pm-3m,3.956277,3.956277,3.956277,90.0,90.0,90.0,"(True, True, True)","[PeriodicSite: Lu (0.0, 0.0, 0.0) [0.0, 0.0, 0.0], PeriodicSite: Re (1.978, 1.978, 1.978) [0.5, 0.5, 0.5], PeriodicSite: O (1.978, 1.978, 0.0) [0.5, 0.5, 0.0], PeriodicSite: O (1.978, 0.0, 1.978) [0.5, 0.0, 0.5], PeriodicSite: O (0.0, 1.978, 1.978) [0.0, 0.5, 0.5]]",61.92415282345703,"[Element Lu, Element Re, Element O, Element O, Element O]",False,False,-1.9429863702499994,0.9857636348000121,0.0
96,mp,mp-1068827.cif,Tb1 Si3 Rh1,TbSi3Rh,I4mm,5.695664669050647,5.695664669050647,5.695664669050647,137.17688727670898,137.17688727670898,62.166002162931896,"(True, True, True)","[PeriodicSite: Tb (0.0, 0.0, 9.74) [0.9984, 0.9984, -0.0], PeriodicSite: Si (0.0, 0.0, 4.045) [0.4146, 0.4146, 0.0], PeriodicSite: Si (2.079, -2.22e-16, 2.577) [0.2642, 0.7642, 0.5], PeriodicSite: Si (-2.22e-16, 2.079, 2.577) [0.7642, 0.2642, 0.5], PeriodicSite: Rh (0.0, 0.0, 6.366) [0.6526, 0.6526, 0.0]]",84.3566930163626,"[Element Tb, Element Si, Element Si, Element Si, Element Rh]",True,False,-0.7791419279999993,0.0,0.0
97,mp,mp-1017626.cif,Li1 Ca1 F3,LiCaF3,Pm-3m,3.761244,3.761244,3.761244,90.0,90.0,90.0,"(True, True, True)","[PeriodicSite: Li (1.881, 1.881, 1.881) [0.5, 0.5, 0.5], PeriodicSite: Ca (0.0, 0.0, 0.0) [0.0, 0.0, 0.0], PeriodicSite: F (0.0, 1.881, 1.881) [0.0, 0.5, 0.5], PeriodicSite: F (1.881, 1.881, 0.0) [0.5, 0.5, 0.0], PeriodicSite: F (1.881, 0.0, 1.881) [0.5, 0.0, 0.5]]",53.210154981331215,"[Element Li, Element Ca, Element F, Element F, Element F]",False,False,-3.6135071741666662,0.18743932200000124,6.5153
98,mp,mp-1184369.cif,Eu1 Pd1 O3,EuPdO3,Pm-3m,4.029298,4.029298,4.029298,90.0,90.0,90.0,"(True, True, True)","[PeriodicSite: Eu (0.0, 0.0, 0.0) [0.0, 0.0, 0.0], PeriodicSite: Pd (2.015, 2.015, 2.015) [0.5, 0.5, 0.5], PeriodicSite: O (2.015, 2.015, 0.0) [0.5, 0.5, 0.0], PeriodicSite: O (2.015, 0.0, 2.015) [0.5, 0.0, 0.5], PeriodicSite: O (0.0, 2.015, 2.015) [0.0, 0.5, 0.5]]",65.4166296222544,"[Element Eu, Element Pd, Element O, Element O, Element O]",False,True,-1.7978226392499999,0.1713675868750002,0.0
99,mp,mp-1185488.cif,Lu1 Ga1 O3,LuGaO3,Pm-3m,3.805841,3.805841,3.805841,90.0,90.0,90.0,"(True, True, True)","[PeriodicSite: Lu (0.0, 0.0, 0.0) [0.0, 0.0, 0.0], PeriodicSite: Ga (1.903, 1.903, 1.903) [0.5, 0.5, 0.5], PeriodicSite: O (1.903, 1.903, 0.0) [0.5, 0.5, 0.0], PeriodicSite: O (1.903, 0.0, 1.903) [0.5, 0.0, 0.5], PeriodicSite: O (0.0, 1.903, 1.903) [0.0, 0.5, 0.5]]",55.12542125628244,"[Element Lu, Element Ga, Element O, Element O, Element O]",False,False,-2.7533795527500002,0.4674635013333459,3.0273999999999996
100,mp,mp-1183286.cif,Ba1 Dy1 O3,BaDyO3,Pm-3m,4.428139,4.428139,4.428139,90.0,90.0,90.0,"(True, True, True)","[PeriodicSite: Ba (0.0, 0.0, 0.0) [0.0, 0.0, 0.0], PeriodicSite: Dy (2.214, 2.214, 2.214) [0.5, 0.5, 0.5], PeriodicSite: O (2.214, 2.214, 0.0) [0.5, 0.5, 0.0], PeriodicSite: O (2.214, 0.0, 2.214) [0.5, 0.0, 0.5], PeriodicSite: O (0.0, 2.214, 2.214) [0.0, 0.5, 0.5]]",86.82878720439085,"[Element Ba, Element Dy, Element O, Element O, Element O]",False,True,-3.1207071172500003,0.10872087099999916,0.0
101,mp,mp-1187448.cif,Th1 W1 O3,ThWO3,Pm-3m,4.135015,4.135015,4.135015,90.0,90.0,90.0,"(True, True, True)","[PeriodicSite: Th (0.0, 0.0, 0.0) [0.0, 0.0, 0.0], PeriodicSite: W (2.068, 2.068, 2.068) [0.5, 0.5, 0.5], PeriodicSite: O (2.068, 2.068, 0.0) [0.5, 0.5, 0.0], PeriodicSite: O (2.068, 0.0, 2.068) [0.5, 0.0, 0.5], PeriodicSite: O (0.0, 2.068, 2.068) [0.0, 0.5, 0.5]]",70.70192979791614,"[Element Th, Element W, Element O, Element O, Element O]",False,True,-2.0938228512500006,1.1386145864999975,0.0
102,mp,mp-1018633.cif,La1 B1 Pt3,LaBPt3,Pm-3m,4.43091,4.43091,4.43091,90.0,90.0,90.0,"(True, True, True)","[PeriodicSite: La (0.0, 0.0, 0.0) [0.0, 0.0, 0.0], PeriodicSite: B (2.215, 2.215, 2.215) [0.5, 0.5, 0.5], PeriodicSite: Pt (0.0, 2.215, 2.215) [0.0, 0.5, 0.5], PeriodicSite: Pt (2.215, 2.215, 0.0) [0.5, 0.5, 0.0], PeriodicSite: Pt (2.215, 0.0, 2.215) [0.5, 0.0, 0.5]]",86.99189398320256,"[Element La, Element B, Element Pt, Element Pt, Element Pt]",False,False,-0.6860895588333336,0.16968911549999888,0.0
103,mp,mp-1186757.cif,Sr1 Zn1 O3,SrZnO3,Pm-3m,3.980065,3.980065,3.980065,90.0,90.0,90.0,"(True, True, True)","[PeriodicSite: Sr (0.0, 0.0, 0.0) [0.0, 0.0, 0.0], PeriodicSite: Zn (1.99, 1.99, 1.99) [0.5, 0.5, 0.5], PeriodicSite: O (1.99, 1.99, 0.0) [0.5, 0.5, 0.0], PeriodicSite: O (1.99, 0.0, 1.99) [0.5, 0.0, 0.5], PeriodicSite: O (0.0, 1.99, 1.99) [0.0, 0.5, 0.5]]",63.04788092844678,"[Element Sr, Element Zn, Element O, Element O, Element O]",False,False,-1.8724251305833328,0.16797229800000046,0.0
104,mp,mp-1185550.cif,Cs1 Eu1 O3,CsEuO3,Pm-3m,4.602523,4.602523,4.602523,90.0,90.0,90.0,"(True, True, True)","[PeriodicSite: Cs (0.0, 0.0, 0.0) [0.0, 0.0, 0.0], PeriodicSite: Eu (2.301, 2.301, 2.301) [0.5, 0.5, 0.5], PeriodicSite: O (2.301, 2.301, 0.0) [0.5, 0.5, 0.0], PeriodicSite: O (2.301, 0.0, 2.301) [0.5, 0.0, 0.5], PeriodicSite: O (0.0, 2.301, 2.301) [0.0, 0.5, 0.5]]",97.4962479003604,"[Element Cs, Element Eu, Element O, Element O, Element O]",False,True,-1.9766972428362082,0.1563260998749998,0.0
105,mp,mp-1185841.cif,Mg1 Al1 O3,MgAlO3,Pm-3m,3.674304,3.674304,3.674304,90.0,90.0,90.0,"(True, True, True)","[PeriodicSite: Mg (0.0, 0.0, 0.0) [0.0, 0.0, 0.0], PeriodicSite: Al (1.837, 1.837, 1.837) [0.5, 0.5, 0.5], PeriodicSite: O (1.837, 1.837, 0.0) [0.5, 0.5, 0.0], PeriodicSite: O (1.837, 0.0, 1.837) [0.5, 0.0, 0.5], PeriodicSite: O (0.0, 1.837, 1.837) [0.0, 0.5, 0.5]]",49.60497747034924,"[Element Mg, Element Al, Element O, Element O, Element O]",False,False,-2.5441155932499995,0.44549723572727284,0.0
106,mp,mp-1069166.cif,Mn1 N1 F3,MnNF3,Pm-3m,3.98307,3.98307,3.98307,90.0,90.0,90.0,"(True, True, True)","[PeriodicSite: Mn (1.992, 1.992, 1.992) [0.5, 0.5, 0.5], PeriodicSite: N (0.0, 0.0, 0.0) [0.0, 0.0, 0.0], PeriodicSite: F (1.992, 1.992, 0.0) [0.5, 0.5, 0.0], PeriodicSite: F (1.992, 0.0, 1.992) [0.5, 0.0, 0.5], PeriodicSite: F (0.0, 1.992, 1.992) [0.0, 0.5, 0.5]]",63.19079464624045,"[Element Mn, Element N, Element F, Element F, Element F]",False,True,-0.7152212000862072,1.498067690999993,0.0
107,mp,mp-1013562.cif,Ba3 Sb1 As1,Ba3SbAs,Pm-3m,6.217785,6.217785,6.217785,90.0,90.0,90.0,"(True, True, True)","[PeriodicSite: Ba (0.0, 3.109, 3.109) [0.0, 0.5, 0.5], PeriodicSite: Ba (3.109, 0.0, 3.109) [0.5, 0.0, 0.5], PeriodicSite: Ba (3.109, 3.109, 0.0) [0.5, 0.5, 0.0], PeriodicSite: Sb (0.0, 0.0, 0.0) [0.0, 0.0, 0.0], PeriodicSite: As (3.109, 3.109, 3.109) [0.5, 0.5, 0.5]]",240.38485512129122,"[Element Ba, Element Ba, Element Ba, Element Sb, Element As]",False,False,-0.8569807990000001,0.2278389527384621,0.14869999999999983
108,mp,mp-1016932.cif,Mn1 Zn1 O3,MnZnO3,Pm-3m,3.738769,3.738769,3.738769,90.0,90.0,90.0,"(True, True, True)","[PeriodicSite: Mn (1.869, 1.869, 1.869) [0.5, 0.5, 0.5], PeriodicSite: Zn (0.0, 0.0, 0.0) [0.0, 0.0, 0.0], PeriodicSite: O (1.869, 1.869, 0.0) [0.5, 0.5, 0.0], PeriodicSite: O (1.869, 0.0, 1.869) [0.5, 0.0, 0.5], PeriodicSite: O (0.0, 1.869, 1.869) [0.0, 0.5, 0.5]]",52.26198479368501,"[Element Mn, Element Zn, Element O, Element O, Element O]",False,True,-1.2590345228362068,0.5611729099999998,0.0
109,mp,mp-1185303.cif,Li1 Ge1 O3,LiGeO3,Pm-3m,3.727265,3.727265,3.727265,90.0,90.0,90.0,"(True, True, True)","[PeriodicSite: Li (0.0, 0.0, 0.0) [0.0, 0.0, 0.0], PeriodicSite: Ge (1.864, 1.864, 1.864) [0.5, 0.5, 0.5], PeriodicSite: O (1.864, 1.864, 0.0) [0.5, 0.5, 0.0], PeriodicSite: O (1.864, 0.0, 1.864) [0.5, 0.0, 0.5], PeriodicSite: O (0.0, 1.864, 1.864) [0.0, 0.5, 0.5]]",51.781045338759334,"[Element Li, Element Ge, Element O, Element O, Element O]",False,False,-1.6688415389166664,0.3531626394222229,0.0
110,mp,mp-1016883.cif,Zr1 Zn1 O3,ZrZnO3,Pm-3m,4.143062,4.143062,4.143062,90.0,90.0,90.0,"(True, True, True)","[PeriodicSite: Zr (2.072, 2.072, 2.072) [0.5, 0.5, 0.5], PeriodicSite: Zn (0.0, 0.0, 0.0) [0.0, 0.0, 0.0], PeriodicSite: O (2.072, 2.072, 0.0) [0.5, 0.5, 0.0], PeriodicSite: O (2.072, 0.0, 2.072) [0.5, 0.0, 0.5], PeriodicSite: O (0.0, 2.072, 2.072) [0.0, 0.5, 0.5]]",71.11550484229129,"[Element Zr, Element Zn, Element O, Element O, Element O]",False,False,-2.2473215832499998,0.7579720909999983,0.0
111,mp,mp-1186920.cif,Sb1 Au1 O3,SbAuO3,Pm-3m,4.002397,4.002397,4.002397,90.0,90.0,90.0,"(True, True, True)","[PeriodicSite: Sb (2.001, 2.001, 2.001) [0.5, 0.5, 0.5], PeriodicSite: Au (0.0, 0.0, 0.0) [0.0, 0.0, 0.0], PeriodicSite: O (2.001, 2.001, 0.0) [0.5, 0.5, 0.0], PeriodicSite: O (2.001, 0.0, 2.001) [0.5, 0.0, 0.5], PeriodicSite: O (0.0, 2.001, 2.001) [0.0, 0.5, 0.5]]",64.11512496108023,"[Element Sb, Element Au, Element O, Element O, Element O]",False,False,-0.8984458552500001,0.37600113766666254,0.0
112,mp,mp-1186220.cif,Nb1 Fe1 O3,NbFeO3,Pm-3m,4.003642,4.003642,4.003642,90.0,90.0,90.0,"(True, True, True)","[PeriodicSite: Nb (2.002, 2.002, 2.002) [0.5, 0.5, 0.5], PeriodicSite: Fe (0.0, 0.0, 0.0) [0.0, 0.0, 0.0], PeriodicSite: O (2.002, 2.002, 0.0) [0.5, 0.5, 0.0], PeriodicSite: O (2.002, 0.0, 2.002) [0.5, 0.0, 0.5], PeriodicSite: O (0.0, 2.002, 2.002) [0.0, 0.5, 0.5]]",64.17497521827609,"[Element Nb, Element Fe, Element O, Element O, Element O]",False,True,-1.9116674512499998,0.5558583015000043,0.0
113,mp,mp-1187480.cif,Yb1 Pt1 O3,YbPtO3,Pm-3m,3.965363,3.965363,3.965363,90.0,90.0,90.0,"(True, True, True)","[PeriodicSite: Yb (0.0, 0.0, 0.0) [0.0, 0.0, 0.0], PeriodicSite: Pt (1.983, 1.983, 1.983) [0.5, 0.5, 0.5], PeriodicSite: O (1.983, 1.983, 0.0) [0.5, 0.5, 0.0], PeriodicSite: O (1.983, 0.0, 1.983) [0.5, 0.0, 0.5], PeriodicSite: O (0.0, 1.983, 1.983) [0.0, 0.5, 0.5]]",62.35177910646509,"[Element Yb, Element Pt, Element O, Element O, Element O]",False,False,-1.7086635412500002,0.29994690800000345,0.0