,provider,id,Full_Formula,formula,space_group,a_lattice_param,b_lattice_param,c_lattice_param,aplha_degree,beta_degree,gamma_degree,pbc,sits,volume,species_at_sites,is_stable,is_magnetic,formation_energy,energy_above_hull,band_gap
822,mp,mp-1186669.cif,Pm1 W1 O3,PmWO3,Pm-3m,4.1273,4.1273,4.1273,90.0,90.0,90.0,"(True, True, True)","[PeriodicSite: Pm (0.0, 0.0, 0.0) [0.0, 0.0, 0.0], PeriodicSite: W (2.064, 2.064, 2.064) [0.5, 0.5, 0.5], PeriodicSite: O (2.064, 2.064, 0.0) [0.5, 0.5, 0.0], PeriodicSite: O (2.064, 0.0, 2.064) [0.5, 0.0, 0.5], PeriodicSite: O (0.0, 2.064, 2.064) [0.0, 0.5, 0.5]]",70.30692641341699,"[Element Pm, Element W, Element O, Element O, Element O]",False,True,-2.27976720275,0.5555465584999979,0.0
823,mp,mp-10708.cif,Pr1 Rh3 C1,PrRh3C,Pm-3m,4.22136644,4.22136644,4.22136644,90.0,90.0,90.0,"(True, True, True)","[PeriodicSite: Pr (0.0, 0.0, 0.0) [0.0, 0.0, 0.0], PeriodicSite: Rh (0.0, 2.111, 2.111) [0.0, 0.5, 0.5], PeriodicSite: Rh (2.111, 2.111, 0.0) [0.5, 0.5, 0.0], PeriodicSite: Rh (2.111, 0.0, 2.111) [0.5, 0.0, 0.5], PeriodicSite: C (2.111, 2.111, 2.111) [0.5, 0.5, 0.5]]",75.22447397106309,"[Element Pr, Element Rh, Element Rh, Element Rh, Element C]",False,False,-0.3559737525000003,0.022491175499999017,0.0
824,mp,mp-1184954.cif,K1 Dy1 O3,KDyO3,Pm-3m,4.46864,4.46864,4.46864,90.0,90.0,90.0,"(True, True, True)","[PeriodicSite: K (0.0, 0.0, 0.0) [0.0, 0.0, 0.0], PeriodicSite: Dy (2.234, 2.234, 2.234) [0.5, 0.5, 0.5], PeriodicSite: O (2.234, 2.234, 0.0) [0.5, 0.5, 0.0], PeriodicSite: O (2.234, 0.0, 2.234) [0.5, 0.0, 0.5], PeriodicSite: O (0.0, 2.234, 2.234) [0.0, 0.5, 0.5]]",89.23312572862054,"[Element K, Element Dy, Element O, Element O, Element O]",False,True,-2.296978923850001,0.26496522266666656,0.0
825,mp,mp-1220160.cif,Nd1 Ga3 Pt1,NdGa3Pt,I-4m2,6.147883693072189,6.147883693072189,6.147883693072189,140.19291615116683,140.19291615116683,57.56049985898345,"(True, True, True)","[PeriodicSite: Nd (0.0, 0.0, 0.0) [-0.0, -0.0, 0.0], PeriodicSite: Ga (0.0, 0.0, 6.625) [0.6147, 0.6147, -0.0], PeriodicSite: Ga (0.0, 0.0, 4.152) [0.3853, 0.3853, 0.0], PeriodicSite: Ga (0.0, 2.093, 2.694) [0.75, 0.25, 0.5], PeriodicSite: Pt (2.093, 0.0, 2.694) [0.25, 0.75, 0.5]]",94.41707543360758,"[Element Nd, Element Ga, Element Ga, Element Ga, Element Pt]",True,False,-0.7241500479999992,0.0,0.0
826,mp,mp-1184610.cif,Ho1 Be1 O3,HoBeO3,Pm-3m,3.562762,3.562762,3.562762,90.0,90.0,90.0,"(True, True, True)","[PeriodicSite: Ho (0.0, 0.0, 0.0) [0.0, 0.0, 0.0], PeriodicSite: Be (1.781, 1.781, 1.781) [0.5, 0.5, 0.5], PeriodicSite: O (1.781, 1.781, 0.0) [0.5, 0.5, 0.0], PeriodicSite: O (1.781, 0.0, 1.781) [0.5, 0.0, 0.5], PeriodicSite: O (0.0, 1.781, 1.781) [0.0, 0.5, 0.5]]",45.22311094458824,"[Element Ho, Element Be, Element O, Element O, Element O]",False,True,-2.89271165025,0.36590065899999935,0.0
827,mp,mp-1206360.cif,Yb3 Al1 C1,Yb3AlC,Pm-3m,5.034563,5.034563,5.034563,90.0,90.0,90.0,"(True, True, True)","[PeriodicSite: Yb (2.517, 0.0, 0.0) [0.5, 0.0, 0.0], PeriodicSite: Yb (0.0, 2.517, 0.0) [0.0, 0.5, 0.0], PeriodicSite: Yb (0.0, 0.0, 2.517) [0.0, 0.0, 0.5], PeriodicSite: Al (2.517, 2.517, 2.517) [0.5, 0.5, 0.5], PeriodicSite: C (0.0, 0.0, 0.0) [0.0, 0.0, 0.0]]",127.61018530352833,"[Element Yb, Element Yb, Element Yb, Element Al, Element C]",False,False,0.1827543564999999,0.3261426933333329,0.0
828,mp,mp-1183759.cif,Ce1 Pu1 O3,CePuO3,Pm-3m,4.365297,4.365297,4.365297,90.0,90.0,90.0,"(True, True, True)","[PeriodicSite: Ce (0.0, 0.0, 0.0) [0.0, 0.0, 0.0], PeriodicSite: Pu (2.183, 2.183, 2.183) [0.5, 0.5, 0.5], PeriodicSite: O (2.183, 2.183, 0.0) [0.5, 0.5, 0.0], PeriodicSite: O (2.183, 0.0, 2.183) [0.5, 0.0, 0.5], PeriodicSite: O (0.0, 2.183, 2.183) [0.0, 0.5, 0.5]]",83.18430470359806,"[Element Ce, Element Pu, Element O, Element O, Element O]",False,True,-3.08341598225,0.5487905186250011,0.0
829,mp,mp-1096983.cif,H3 C1 I1,H3CI,R3m,15.478978933210193,15.478978933210193,15.478979349178097,90.20473348686963,90.20473348686963,90.20473612177064,"(True, True, True)","[PeriodicSite: H (10.35, -0.9032, 6.719) [0.5165, 0.4341, 0.4341], PeriodicSite: H (10.35, 0.9032, 6.719) [0.4341, 0.5165, 0.4341], PeriodicSite: H (9.445, 0.0, 7.994) [0.4341, 0.4341, 0.5165], PeriodicSite: C (10.31, 0.0, 7.333) [0.4737, 0.4737, 0.4737], PeriodicSite: I (12.07, 0.0, 8.58) [0.5543, 0.5543, 0.5543]]",3708.673502497096,"[Element H, Element H, Element H, Element C, Element I]",False,False,-0.1599965725000004,0.07229054116666589,4.289499999999999
830,mp,mp-1186997.cif,Si1 Mo1 O3,SiMoO3,Pm-3m,3.645503,3.645503,3.645503,90.0,90.0,90.0,"(True, True, True)","[PeriodicSite: Si (1.823, 1.823, 1.823) [0.5, 0.5, 0.5], PeriodicSite: Mo (0.0, 0.0, 0.0) [0.0, 0.0, 0.0], PeriodicSite: O (1.823, 1.823, 0.0) [0.5, 0.5, 0.0], PeriodicSite: O (1.823, 0.0, 1.823) [0.5, 0.0, 0.5], PeriodicSite: O (0.0, 1.823, 1.823) [0.0, 0.5, 0.5]]",48.44761250350568,"[Element Si, Element Mo, Element O, Element O, Element O]",False,True,-1.6756221772499997,0.8919180915000071,0.0
831,mp,mp-1069765.cif,Sm1 Si3 Rh1,SmSi3Rh,I4mm,5.722168258866891,5.722168258866891,5.722168258866891,136.9642061921586,136.9642061921586,62.49312767834291,"(True, True, True)","[PeriodicSite: Sm (0.0, 0.0, 9.775) [0.9991, 0.9991, 0.0], PeriodicSite: Si (0.0, 0.0, 4.052) [0.4142, 0.4142, 0.0], PeriodicSite: Si (2.099, 0.0, 2.578) [0.2635, 0.7635, 0.5], PeriodicSite: Si (0.0, 2.099, 2.578) [0.7635, 0.2635, 0.5], PeriodicSite: Rh (0.0, 0.0, 6.396) [0.6537, 0.6537, -0.0]]",86.20219627028747,"[Element Sm, Element Si, Element Si, Element Si, Element Rh]",True,False,-0.7954136649999995,0.0,0.0
832,mp,mp-1185889.cif,Mg1 In1 O3,MgInO3,Pm-3m,3.883706,3.883706,3.883706,90.0,90.0,90.0,"(True, True, True)","[PeriodicSite: Mg (1.942, 1.942, 1.942) [0.5, 0.5, 0.5], PeriodicSite: In (0.0, 0.0, 0.0) [0.0, 0.0, 0.0], PeriodicSite: O (1.942, 1.942, 0.0) [0.5, 0.5, 0.0], PeriodicSite: O (1.942, 0.0, 1.942) [0.5, 0.0, 0.5], PeriodicSite: O (0.0, 1.942, 1.942) [0.0, 0.5, 0.5]]",58.578606738934866,"[Element Mg, Element In, Element O, Element O, Element O]",False,True,-1.4206450052500004,0.7998844991249996,0.0
833,mp,mp-1184148.cif,Er1 Be1 O3,ErBeO3,Pm-3m,3.553274,3.553274,3.553274,90.0,90.0,90.0,"(True, True, True)","[PeriodicSite: Er (0.0, 0.0, 0.0) [0.0, 0.0, 0.0], PeriodicSite: Be (1.777, 1.777, 1.777) [0.5, 0.5, 0.5], PeriodicSite: O (1.777, 1.777, 0.0) [0.5, 0.5, 0.0], PeriodicSite: O (1.777, 0.0, 1.777) [0.5, 0.0, 0.5], PeriodicSite: O (0.0, 1.777, 1.777) [0.0, 0.5, 0.5]]",44.862770948253655,"[Element Er, Element Be, Element O, Element O, Element O]",False,True,-2.8884297042499996,0.38189581212500023,0.0
834,mp,mp-10700.cif,Mg1 Ni3 C1,MgNi3C,Pm-3m,3.78357767,3.78360493,3.7835918,90.0,90.0,90.0,"(True, True, True)","[PeriodicSite: Mg (0.0, 0.0, 0.0) [0.0, -0.0, 0.0], PeriodicSite: Ni (0.0, 1.892, 1.892) [0.0, 0.5, 0.5], PeriodicSite: Ni (1.892, 0.0, 1.892) [0.5, 0.0, 0.5], PeriodicSite: Ni (1.892, 1.892, 0.0) [0.5, 0.5, -0.0], PeriodicSite: C (1.892, 1.892, 1.892) [0.5, 0.5, 0.5]]",54.164247253077946,"[Element Mg, Element Ni, Element Ni, Element Ni, Element C]",True,True,-0.13632796750000012,0.0,0.0
835,mp,mp-10274.cif,Er3 Ga1 C1,Er3GaC,Pm-3m,5.253141,5.253141,5.253141,90.0,90.0,90.0,"(True, True, True)","[PeriodicSite: Er (0.0, 2.627, 2.627) [0.0, 0.5, 0.5], PeriodicSite: Er (2.627, 0.0, 2.627) [0.5, 0.0, 0.5], PeriodicSite: Er (2.627, 2.627, 0.0) [0.5, 0.5, 0.0], PeriodicSite: Ga (2.627, 2.627, 2.627) [0.5, 0.5, 0.5], PeriodicSite: C (0.0, 0.0, 0.0) [0.0, 0.0, 0.0]]",144.9630018561145,"[Element Er, Element Er, Element Er, Element Ga, Element C]",False,False,1.1865931450000005,1.629007375999998,0.0
836,mp,mp-1016880.cif,Zn1 Rh1 O3,ZnRhO3,Pm-3m,3.891291,3.891291,3.891291,90.0,90.0,90.0,"(True, True, True)","[PeriodicSite: Zn (0.0, 0.0, 0.0) [0.0, 0.0, 0.0], PeriodicSite: Rh (1.946, 1.946, 1.946) [0.5, 0.5, 0.5], PeriodicSite: O (1.946, 1.946, 0.0) [0.5, 0.5, 0.0], PeriodicSite: O (1.946, 0.0, 1.946) [0.5, 0.0, 0.5], PeriodicSite: O (0.0, 1.946, 1.946) [0.0, 0.5, 0.5]]",58.92249507561895,"[Element Zn, Element Rh, Element O, Element O, Element O]",False,True,-0.68608584125,0.7624100170000006,0.0
837,mp,mp-1184833.cif,Ho1 Rh1 O3,HoRhO3,Pm-3m,3.937435,3.937435,3.937435,90.0,90.0,90.0,"(True, True, True)","[PeriodicSite: Ho (0.0, 0.0, 0.0) [0.0, 0.0, 0.0], PeriodicSite: Rh (1.969, 1.969, 1.969) [0.5, 0.5, 0.5], PeriodicSite: O (1.969, 1.969, 0.0) [0.5, 0.5, 0.0], PeriodicSite: O (1.969, 0.0, 1.969) [0.5, 0.0, 0.5], PeriodicSite: O (0.0, 1.969, 1.969) [0.0, 0.5, 0.5]]",61.043607647563775,"[Element Ho, Element Rh, Element O, Element O, Element O]",False,False,-1.99051443325,0.600743013999999,0.0
838,mp,mp-1187146.cif,Sr1 Au1 O3,SrAuO3,Pm-3m,4.13584,4.13584,4.13584,90.0,90.0,90.0,"(True, True, True)","[PeriodicSite: Sr (0.0, 0.0, 0.0) [0.0, 0.0, 0.0], PeriodicSite: Au (2.068, 2.068, 2.068) [0.5, 0.5, 0.5], PeriodicSite: O (2.068, 2.068, 0.0) [0.5, 0.5, 0.0], PeriodicSite: O (2.068, 0.0, 2.068) [0.5, 0.0, 0.5], PeriodicSite: O (0.0, 2.068, 2.068) [0.0, 0.5, 0.5]]",70.7442566555607,"[Element Sr, Element Au, Element O, Element O, Element O]",False,False,-1.4220654605833332,0.2745435899999986,0.0
839,mp,mp-1068364.cif,Ce1 Si3 Os1,CeSi3Os,I4mm,5.816297436085987,5.816297436085987,5.816297436085987,137.53674111453992,137.53674111453992,61.61324692492226,"(True, True, True)","[PeriodicSite: Ce (0.0, 0.0, 9.957) [0.9966, 0.9966, -0.0], PeriodicSite: Si (0.0, 0.0, 4.232) [0.4236, 0.4236, 0.0], PeriodicSite: Si (2.106, 2.22e-16, 2.653) [0.2655, 0.7655, 0.5], PeriodicSite: Si (2.22e-16, 2.106, 2.653) [0.7655, 0.2655, 0.5], PeriodicSite: Os (0.0, 0.0, 6.572) [0.6578, 0.6578, -0.0]]",88.65308006731142,"[Element Ce, Element Si, Element Si, Element Si, Element Os]",True,True,-0.6131902530000005,0.0,0.0
840,mp,mp-1013558.cif,Ca3 Bi1 P1,Ca3BiP,Pm-3m,5.41746624,5.41746624,5.41746624,90.0,90.0,90.0,"(True, True, True)","[PeriodicSite: Ca (0.0, 2.709, 2.709) [-0.0, 0.5, 0.5], PeriodicSite: Ca (2.709, 0.0, 2.709) [0.5, 0.0, 0.5], PeriodicSite: Ca (2.709, 2.709, 0.0) [0.5, 0.5, 0.0], PeriodicSite: Bi (0.0, 0.0, 0.0) [-0.0, 0.0, 0.0], PeriodicSite: P (2.709, 2.709, 2.709) [0.5, 0.5, 0.5]]",158.9968941301616,"[Element Ca, Element Ca, Element Ca, Element Bi, Element P]",True,False,-0.9740149006666663,0.0,0.0759000000000003
841,mp,mp-1184946.cif,K1 Zn1 O3,KZnO3,Pm-3m,4.088547,4.088547,4.088547,90.0,90.0,90.0,"(True, True, True)","[PeriodicSite: K (0.0, 0.0, 0.0) [0.0, 0.0, 0.0], PeriodicSite: Zn (2.044, 2.044, 2.044) [0.5, 0.5, 0.5], PeriodicSite: O (2.044, 2.044, 0.0) [0.5, 0.5, 0.0], PeriodicSite: O (2.044, 0.0, 2.044) [0.5, 0.0, 0.5], PeriodicSite: O (0.0, 2.044, 2.044) [0.0, 0.5, 0.5]]",68.34503711356686,"[Element K, Element Zn, Element O, Element O, Element O]",False,True,-0.9430872858499996,0.3663459960000015,0.0
842,mp,mp-1184937.cif,K1 As1 O3,KAsO3,Pm-3m,3.843473,3.843473,3.843473,90.0,90.0,90.0,"(True, True, True)","[PeriodicSite: K (0.0, 0.0, 0.0) [0.0, 0.0, 0.0], PeriodicSite: As (1.922, 1.922, 1.922) [0.5, 0.5, 0.5], PeriodicSite: O (1.922, 1.922, 0.0) [0.5, 0.5, 0.0], PeriodicSite: O (1.922, 0.0, 1.922) [0.5, 0.0, 0.5], PeriodicSite: O (0.0, 1.922, 1.922) [0.0, 0.5, 0.5]]",56.77687739940846,"[Element K, Element As, Element O, Element O, Element O]",False,False,-1.5167299208499998,0.42647949425000053,0.0
843,mp,mp-1206915.cif,Co1 Ag1 F3,CoAgF3,Pm-3m,4.383699,4.383699,4.383699,90.0,90.0,90.0,"(True, True, True)","[PeriodicSite: Co (2.192, 2.192, 2.192) [0.5, 0.5, 0.5], PeriodicSite: Ag (0.0, 0.0, 0.0) [0.0, 0.0, 0.0], PeriodicSite: F (2.192, 0.0, 0.0) [0.5, 0.0, 0.0], PeriodicSite: F (0.0, 2.192, 0.0) [0.0, 0.5, 0.0], PeriodicSite: F (0.0, 0.0, 2.192) [0.0, 0.0, 0.5]]",84.24074112678909,"[Element Co, Element Ag, Element F, Element F, Element F]",False,True,-0.848560143833334,1.056036592000003,0.0
844,mp,mp-1186886.cif,Rb1 Hg1 O3,RbHgO3,Pm-3m,4.378672,4.378672,4.378672,90.0,90.0,90.0,"(True, True, True)","[PeriodicSite: Rb (0.0, 0.0, 0.0) [0.0, 0.0, 0.0], PeriodicSite: Hg (2.189, 2.189, 2.189) [0.5, 0.5, 0.5], PeriodicSite: O (2.189, 2.189, 0.0) [0.5, 0.5, 0.0], PeriodicSite: O (2.189, 0.0, 2.189) [0.5, 0.0, 0.5], PeriodicSite: O (0.0, 2.189, 2.189) [0.0, 0.5, 0.5]]",83.95126452155172,"[Element Rb, Element Hg, Element O, Element O, Element O]",False,True,-0.4756800077499996,0.36366087350000065,0.0
845,mp,mp-1099591.cif,Na1 V1 O3,NaVO3,Pm-3m,3.773809,3.773809,3.773809,90.0,90.0,90.0,"(True, True, True)","[PeriodicSite: Na (1.887, 1.887, 1.887) [0.5, 0.5, 0.5], PeriodicSite: V (0.0, 0.0, 0.0) [0.0, 0.0, 0.0], PeriodicSite: O (1.887, 0.0, 0.0) [0.5, 0.0, 0.0], PeriodicSite: O (0.0, 1.887, 0.0) [0.0, 0.5, 0.0], PeriodicSite: O (0.0, 0.0, 1.887) [0.0, 0.0, 0.5]]",53.745207954482915,"[Element Na, Element V, Element O, Element O, Element O]",False,False,-2.2384300645603448,0.1419200870000008,0.21679999999999966
846,mp,mp-1206715.cif,Al1 Fe3 B1,AlFe3B,Pm-3m,3.822322,3.822322,3.822322,90.0,90.0,90.0,"(True, True, True)","[PeriodicSite: Al (1.911, 1.911, 1.911) [0.5, 0.5, 0.5], PeriodicSite: Fe (1.911, 0.0, 0.0) [0.5, 0.0, 0.0], PeriodicSite: Fe (0.0, 1.911, 0.0) [0.0, 0.5, 0.0], PeriodicSite: Fe (0.0, 0.0, 1.911) [0.0, 0.0, 0.5], PeriodicSite: B (0.0, 0.0, 0.0) [0.0, 0.0, 0.0]]",55.84468045961814,"[Element Al, Element Fe, Element Fe, Element Fe, Element B]",False,True,-0.14657718583333262,0.16867368699999652,0.0
847,mp,mp-1220163.cif,Nd1 Ga3 Ni1,NdGa3Ni,I-4m2,6.087049591739746,6.087049591739746,6.087049591739746,140.1117794085607,140.1117794085607,57.68361684049385,"(True, True, True)","[PeriodicSite: Nd (0.0, 0.0, 0.0) [0.0, 0.0, 0.0], PeriodicSite: Ga (0.0, 0.0, 6.603) [0.6192, 0.6192, 0.0], PeriodicSite: Ga (0.0, 0.0, 4.06) [0.3808, 0.3808, 0.0], PeriodicSite: Ga (0.0, 2.076, 2.666) [0.75, 0.25, 0.5], PeriodicSite: Ni (2.076, 0.0, 2.666) [0.25, 0.75, 0.5]]",91.9462943326596,"[Element Nd, Element Ga, Element Ga, Element Ga, Element Ni]",False,False,-0.535377591999999,0.07304781600000076,0.0
848,mp,mp-1219014.cif,Sm1 Ga3 Cu1,SmGa3Cu,I-4m2,6.040623355103739,6.040623355103739,6.040623355103739,140.16150106571646,140.16150106571646,57.60816426194729,"(True, True, True)","[PeriodicSite: Sm (0.0, 0.0, 0.0) [0.0, -0.0, -0.0], PeriodicSite: Ga (0.0, 0.0, 6.519) [0.6157, 0.6157, -0.0], PeriodicSite: Ga (0.0, 0.0, 4.068) [0.3843, 0.3843, 0.0], PeriodicSite: Ga (0.0, 2.058, 2.647) [0.75, 0.25, 0.5], PeriodicSite: Cu (2.058, 0.0, 2.647) [0.25, 0.75, 0.5]]",89.67616068597104,"[Element Sm, Element Ga, Element Ga, Element Ga, Element Cu]",True,False,-0.4943632954999998,0.0,0.0
849,mp,mp-1183499.cif,Be1 Pb1 O3,BePbO3,Pm-3m,3.652531,3.652531,3.652531,90.0,90.0,90.0,"(True, True, True)","[PeriodicSite: Be (0.0, 0.0, 0.0) [0.0, 0.0, 0.0], PeriodicSite: Pb (1.826, 1.826, 1.826) [0.5, 0.5, 0.5], PeriodicSite: O (0.0, 0.0, 1.826) [0.0, 0.0, 0.5], PeriodicSite: O (0.0, 1.826, 0.0) [0.0, 0.5, 0.0], PeriodicSite: O (1.826, 0.0, 0.0) [0.5, 0.0, 0.0]]",48.72835290398645,"[Element Be, Element Pb, Element O, Element O, Element O]",False,False,-1.39283871425,0.6288552019999987,0.0
850,mp,mp-1186885.cif,Rb1 Ge1 O3,RbGeO3,Pm-3m,3.948621,3.948621,3.948621,90.0,90.0,90.0,"(True, True, True)","[PeriodicSite: Rb (0.0, 0.0, 0.0) [0.0, 0.0, 0.0], PeriodicSite: Ge (1.974, 1.974, 1.974) [0.5, 0.5, 0.5], PeriodicSite: O (1.974, 1.974, 0.0) [0.5, 0.5, 0.0], PeriodicSite: O (1.974, 0.0, 1.974) [0.5, 0.0, 0.5], PeriodicSite: O (0.0, 1.974, 1.974) [0.0, 0.5, 0.5]]",61.565349989323494,"[Element Rb, Element Ge, Element O, Element O, Element O]",False,True,-1.48774642375,0.4197994582916653,0.0
851,mp,mp-1076642.cif,Na1 Cr1 O3,NaCrO3,Pm-3m,3.74807,3.74807,3.74807,90.0,90.0,90.0,"(True, True, True)","[PeriodicSite: Na (1.874, 1.874, 1.874) [0.5, 0.5, 0.5], PeriodicSite: Cr (0.0, 0.0, 0.0) [0.0, 0.0, 0.0], PeriodicSite: O (1.874, 0.0, 0.0) [0.5, 0.0, 0.0], PeriodicSite: O (0.0, 1.874, 0.0) [0.0, 0.5, 0.0], PeriodicSite: O (0.0, 0.0, 1.874) [0.0, 0.0, 0.5]]",52.65299502293593,"[Element Na, Element Cr, Element O, Element O, Element O]",False,True,-1.7127423985603443,0.2964467783333298,0.0
852,mp,mp-1018641.cif,Tm3 Al1 N1,Tm3AlN,Pm-3m,4.65734774,4.65734774,4.65734774,90.0,90.0,90.0,"(True, True, True)","[PeriodicSite: Tm (2.329, 2.329, 0.0) [0.5, 0.5, 0.0], PeriodicSite: Tm (2.329, 0.0, 2.329) [0.5, -0.0, 0.5], PeriodicSite: Tm (0.0, 2.329, 2.329) [0.0, 0.5, 0.5], PeriodicSite: Al (0.0, 0.0, 0.0) [0.0, -0.0, 0.0], PeriodicSite: N (2.329, 2.329, 2.329) [0.5, 0.5, 0.5]]",101.02200807164854,"[Element Tm, Element Tm, Element Tm, Element Al, Element N]",True,False,-1.026312463,0.0,0.0
853,mp,mp-1215930.cif,Y1 Bi1 Te3,YBiTe3,R3m,10.840093774501076,10.840093774501076,10.840093554031718,23.458629060048345,23.458629060048345,23.45862961896686,"(True, True, True)","[PeriodicSite: Y (18.88, 0.0, 2.279) [0.6015, 0.6015, 0.6015], PeriodicSite: Bi (12.53, 0.0, 1.513) [0.3993, 0.3993, 0.3993], PeriodicSite: Te (31.27, 0.0, 3.775) [0.9963, 0.9963, 0.9963], PeriodicSite: Te (24.68, 0.0, 2.98) [0.7864, 0.7864, 0.7864], PeriodicSite: Te (6.795, 0.0, 0.8205) [0.2165, 0.2165, 0.2165]]",177.25846086848023,"[Element Y, Element Bi, Element Te, Element Te, Element Te]",False,False,-1.0703765513333336,0.027144715749997772,1.0246999999999993
854,mp,mp-1206127.cif,Ce1 Ru3 C1,CeRu3C,Pm-3m,4.15944336,4.15944336,4.15944336,90.0,90.0,90.0,"(True, True, True)","[PeriodicSite: Ce (2.08, 2.08, 2.08) [0.5, 0.5, 0.5], PeriodicSite: Ru (2.08, 0.0, 0.0) [0.5, -0.0, -0.0], PeriodicSite: Ru (0.0, 2.08, 0.0) [-0.0, 0.5, -0.0], PeriodicSite: Ru (0.0, 0.0, 2.08) [0.0, -0.0, 0.5], PeriodicSite: C (0.0, 0.0, 0.0) [0.0, 0.0, 0.0]]",71.96240089917968,"[Element Ce, Element Ru, Element Ru, Element Ru, Element C]",True,False,-0.24168400049999975,0.0,0.0
855,mp,mp-1225137.cif,Eu1 Mg1 Ga3,EuMgGa3,I-4m2,4.344551,4.344551,6.479634735868604,70.41247057209354,70.41247057209354,90.0,"(True, True, True)","[PeriodicSite: Eu (0.0, 0.0, 0.0) [0.0, 0.0, 0.0], PeriodicSite: Mg (4.345, 2.172, 2.853) [0.75, 0.25, 0.5], PeriodicSite: Ga (2.172, 2.172, 1.251) [0.3904, 0.3904, 0.2193], PeriodicSite: Ga (4.345, 4.345, 4.454) [0.6096, 0.6096, 0.7807], PeriodicSite: Ga (2.172, 4.345, 2.853) [0.25, 0.75, 0.5]]",107.68437208580592,"[Element Eu, Element Mg, Element Ga, Element Ga, Element Ga]",True,True,-0.4315533904999995,0.0,0.0
856,mp,mp-1094072.cif,Pr3 Al1 N1,Pr3AlN,Pm-3m,5.0424066,5.0424066,5.0424066,90.0,90.0,90.0,"(True, True, True)","[PeriodicSite: Pr (2.521, 2.521, 0.0) [0.5, 0.5, 0.0], PeriodicSite: Pr (2.521, 0.0, 2.521) [0.5, 0.0, 0.5], PeriodicSite: Pr (0.0, 2.521, 2.521) [0.0, 0.5, 0.5], PeriodicSite: Al (0.0, 0.0, 0.0) [0.0, 0.0, 0.0], PeriodicSite: N (2.521, 2.521, 2.521) [0.5, 0.5, 0.5]]",128.20754605647855,"[Element Pr, Element Pr, Element Pr, Element Al, Element N]",True,False,-0.7855465840000001,0.0,0.0
857,mp,mp-10038.cif,Er3 Al1 C1,Er3AlC,Pm-3m,5.303405,5.303405,5.303405,90.0,90.0,90.0,"(True, True, True)","[PeriodicSite: Er (0.0, 2.652, 2.652) [0.0, 0.5, 0.5], PeriodicSite: Er (2.652, 2.652, 0.0) [0.5, 0.5, 0.0], PeriodicSite: Er (2.652, 0.0, 2.652) [0.5, 0.0, 0.5], PeriodicSite: Al (2.652, 2.652, 2.652) [0.5, 0.5, 0.5], PeriodicSite: C (0.0, 0.0, 0.0) [0.0, 0.0, 0.0]]",149.16412373447514,"[Element Er, Element Er, Element Er, Element Al, Element C]",False,False,1.4452686225,1.8766502300000005,0.0
858,mp,mp-1076800.cif,Ba1 Cu1 O3,BaCuO3,Pm-3m,4.003691,4.003691,4.003691,90.0,90.0,90.0,"(True, True, True)","[PeriodicSite: Ba (2.002, 2.002, 2.002) [0.5, 0.5, 0.5], PeriodicSite: Cu (0.0, 0.0, 0.0) [0.0, 0.0, 0.0], PeriodicSite: O (2.002, 0.0, 0.0) [0.5, 0.0, 0.0], PeriodicSite: O (0.0, 2.002, 0.0) [0.0, 0.5, 0.0], PeriodicSite: O (0.0, 0.0, 2.002) [0.0, 0.0, 0.5]]",64.17733153205626,"[Element Ba, Element Cu, Element O, Element O, Element O]",False,True,-1.66392946725,0.08273291958333662,0.0