,provider,id,Full_Formula,formula,space_group,a_lattice_param,b_lattice_param,c_lattice_param,aplha_degree,beta_degree,gamma_degree,pbc,sits,volume,species_at_sites,is_stable,is_magnetic,formation_energy,energy_above_hull,band_gap
373,mp,mp-10718.cif,Sm3 Sn1 C1,Sm3SnC,Pm-3m,5.73661,5.73661,5.73661,90.0,90.0,90.0,"(True, True, True)","[PeriodicSite: Sm (0.0, 2.868, 2.868) [0.0, 0.5, 0.5], PeriodicSite: Sm (2.868, 0.0, 2.868) [0.5, 0.0, 0.5], PeriodicSite: Sm (2.868, 2.868, 0.0) [0.5, 0.5, 0.0], PeriodicSite: Sn (2.868, 2.868, 2.868) [0.5, 0.5, 0.5], PeriodicSite: C (0.0, 0.0, 0.0) [0.0, 0.0, 0.0]]",188.78434476300373,"[Element Sm, Element Sm, Element Sm, Element Sn, Element C]",False,False,1.4260212485000003,1.8865557954999987,0.0
374,mp,mp-1183933.cif,Cs1 Np1 O3,CsNpO3,Pm-3m,4.391044,4.391044,4.391044,90.0,90.0,90.0,"(True, True, True)","[PeriodicSite: Cs (0.0, 0.0, 0.0) [0.0, 0.0, 0.0], PeriodicSite: Np (2.196, 2.196, 2.196) [0.5, 0.5, 0.5], PeriodicSite: O (2.196, 2.196, 0.0) [0.5, 0.5, 0.0], PeriodicSite: O (2.196, 0.0, 2.196) [0.5, 0.0, 0.5], PeriodicSite: O (0.0, 2.196, 2.196) [0.0, 0.5, 0.5]]",84.66489357279501,"[Element Cs, Element Np, Element O, Element O, Element O]",False,True,-2.985180658586208,0.08905128399999818,0.0
375,mp,mp-1147745.cif,Cs1 Si1 I3,CsSiI3,R3m,6.133592123554108,6.133592123554108,6.133591975192432,87.52193411456948,87.52193411456948,87.52193313823066,"(True, True, True)","[PeriodicSite: Cs (0.009338, 0.0, 0.006196) [0.001012, 0.001012, 0.001012], PeriodicSite: Si (4.269, 0.0, 2.833) [0.4627, 0.4627, 0.4627], PeriodicSite: I (2.538, 2.004, 3.073) [0.02938, 0.5019, 0.5019], PeriodicSite: I (4.457, 0.0, 0.1799) [0.5019, 0.5019, 0.02938], PeriodicSite: I (2.538, -2.004, 3.073) [0.5019, 0.02938, 0.5019]]",230.12230299940617,"[Element Cs, Element Si, Element I, Element I, Element I]",False,False,-0.9697135215862069,0.10511174933333267,0.8319999999999999
376,mp,mp-1187515.cif,Yb1 Sn1 O3,YbSnO3,Pm-3m,4.031675,4.031675,4.031675,90.0,90.0,90.0,"(True, True, True)","[PeriodicSite: Yb (0.0, 0.0, 0.0) [0.0, 0.0, 0.0], PeriodicSite: Sn (2.016, 2.016, 2.016) [0.5, 0.5, 0.5], PeriodicSite: O (2.016, 2.016, 0.0) [0.5, 0.5, 0.0], PeriodicSite: O (2.016, 0.0, 2.016) [0.5, 0.0, 0.5], PeriodicSite: O (0.0, 2.016, 2.016) [0.0, 0.5, 0.5]]",65.53247144720568,"[Element Yb, Element Sn, Element O, Element O, Element O]",False,False,-2.591294924249999,0.12584285400000095,1.7074999999999996
377,mp,mp-1069041.cif,Nd1 Si3 Ru1,NdSi3Ru,I4mm,5.788725414113048,5.788725414113048,5.788725414113048,137.27784553648988,137.27784553648988,62.0108316670637,"(True, True, True)","[PeriodicSite: Nd (0.0, 0.0, 9.907) [0.9984, 0.9984, 0.0], PeriodicSite: Si (0.0, 0.0, 4.157) [0.4189, 0.4189, -0.0], PeriodicSite: Si (2.109, 0.0, 2.587) [0.2607, 0.7607, 0.5], PeriodicSite: Si (0.0, 2.109, 2.587) [0.7607, 0.2607, 0.5], PeriodicSite: Ru (0.0, 0.0, 6.503) [0.6553, 0.6553, -0.0]]",88.23381749538274,"[Element Nd, Element Si, Element Si, Element Si, Element Ru]",False,False,-0.6511522934999995,0.00040092387500045845,0.0
378,mp,mp-1178268.cif,Gd1 Al1 O3,GdAlO3,Pm-3m,3.735328,3.735328,3.735328,90.0,90.0,90.0,"(True, True, True)","[PeriodicSite: Gd (0.0, 0.0, 0.0) [0.0, 0.0, 0.0], PeriodicSite: Al (1.868, 1.868, 1.868) [0.5, 0.5, 0.5], PeriodicSite: O (0.0, 1.868, 1.868) [0.0, 0.5, 0.5], PeriodicSite: O (1.868, 0.0, 1.868) [0.5, 0.0, 0.5], PeriodicSite: O (1.868, 1.868, 0.0) [0.5, 0.5, 0.0]]",52.11781860191401,"[Element Gd, Element Al, Element O, Element O, Element O]",False,True,-3.6144802052500014,0.08511760940001878,1.8884999999999996
379,mp,mp-1184641.cif,Ge1 Te1 O3,GeTeO3,Pm-3m,3.901783,3.901783,3.901783,90.0,90.0,90.0,"(True, True, True)","[PeriodicSite: Ge (0.0, 0.0, 0.0) [0.0, 0.0, 0.0], PeriodicSite: Te (1.951, 1.951, 1.951) [0.5, 0.5, 0.5], PeriodicSite: O (0.0, 0.0, 1.951) [0.0, 0.0, 0.5], PeriodicSite: O (0.0, 1.951, 0.0) [0.0, 0.5, 0.0], PeriodicSite: O (1.951, 0.0, 0.0) [0.5, 0.0, 0.0]]",59.40039549100962,"[Element Ge, Element Te, Element O, Element O, Element O]",False,False,-1.0154732835833329,0.6836629340833396,0.0
380,mp,mp-1075904.cif,Eu1 Fe1 O3,EuFeO3,Pm-3m,3.865278,3.865278,3.865278,90.0,90.0,90.0,"(True, True, True)","[PeriodicSite: Eu (1.933, 1.933, 1.933) [0.5, 0.5, 0.5], PeriodicSite: Fe (0.0, 0.0, 0.0) [0.0, 0.0, 0.0], PeriodicSite: O (1.933, 0.0, 0.0) [0.5, 0.0, 0.0], PeriodicSite: O (0.0, 1.933, 0.0) [0.0, 0.5, 0.0], PeriodicSite: O (0.0, 0.0, 1.933) [0.0, 0.0, 0.5]]",57.74869900077947,"[Element Eu, Element Fe, Element O, Element O, Element O]",False,True,-2.36560642525,0.08090617587496318,0.0
381,mp,mp-1187767.cif,U1 Si1 O3,USiO3,Pm-3m,3.795583,3.795583,3.795583,90.0,90.0,90.0,"(True, True, True)","[PeriodicSite: U (0.0, 0.0, 0.0) [0.0, 0.0, 0.0], PeriodicSite: Si (1.898, 1.898, 1.898) [0.5, 0.5, 0.5], PeriodicSite: O (1.898, 1.898, 0.0) [0.5, 0.5, 0.0], PeriodicSite: O (1.898, 0.0, 1.898) [0.5, 0.0, 0.5], PeriodicSite: O (0.0, 1.898, 1.898) [0.0, 0.5, 0.5]]",54.68087788655943,"[Element U, Element Si, Element O, Element O, Element O]",False,True,-2.45400820925,0.7771768790000024,0.0
382,mp,mp-10714.cif,Tm1 Rh3 C1,TmRh3C,Pm-3m,4.12603139,4.12603139,4.12603139,90.0,90.0,90.0,"(True, True, True)","[PeriodicSite: Tm (0.0, 0.0, 0.0) [0.0, -0.0, 0.0], PeriodicSite: Rh (0.0, 2.063, 2.063) [0.0, 0.5, 0.5], PeriodicSite: Rh (2.063, 2.063, 0.0) [0.5, 0.5, 0.0], PeriodicSite: Rh (2.063, 0.0, 2.063) [0.5, 0.0, 0.5], PeriodicSite: C (2.063, 2.063, 2.063) [0.5, 0.5, 0.5]]",70.24211552659936,"[Element Tm, Element Rh, Element Rh, Element Rh, Element C]",True,False,-0.5400310648333331,0.0,0.0
383,mp,mp-10732.cif,Th1 Ta1 N3,ThTaN3,Pm-3m,4.064437,4.064437,4.064437,90.0,90.0,90.0,"(True, True, True)","[PeriodicSite: Th (0.0, 0.0, 0.0) [0.0, 0.0, 0.0], PeriodicSite: Ta (2.032, 2.032, 2.032) [0.5, 0.5, 0.5], PeriodicSite: N (2.032, 0.0, 2.032) [0.5, 0.0, 0.5], PeriodicSite: N (2.032, 2.032, 0.0) [0.5, 0.5, 0.0], PeriodicSite: N (0.0, 2.032, 2.032) [0.0, 0.5, 0.5]]",67.1430690742335,"[Element Th, Element Ta, Element N, Element N, Element N]",False,False,-1.4475766870000002,0.2313084975000006,0.0766
384,mp,mp-1184445.cif,Eu1 Ir1 O3,EuIrO3,Pm-3m,4.010484,4.010484,4.010484,90.0,90.0,90.0,"(True, True, True)","[PeriodicSite: Eu (0.0, 0.0, 0.0) [0.0, 0.0, 0.0], PeriodicSite: Ir (2.005, 2.005, 2.005) [0.5, 0.5, 0.5], PeriodicSite: O (2.005, 2.005, 0.0) [0.5, 0.5, 0.0], PeriodicSite: O (2.005, 0.0, 2.005) [0.5, 0.0, 0.5], PeriodicSite: O (0.0, 2.005, 2.005) [0.0, 0.5, 0.5]]",64.50455212341306,"[Element Eu, Element Ir, Element O, Element O, Element O]",False,True,-1.900873739250001,0.32908739184375335,0.0
385,mp,mp-1184992.cif,K1 Cd1 O3,KCdO3,Pm-3m,4.339857,4.339857,4.339857,90.0,90.0,90.0,"(True, True, True)","[PeriodicSite: K (0.0, 0.0, 0.0) [0.0, 0.0, 0.0], PeriodicSite: Cd (2.17, 2.17, 2.17) [0.5, 0.5, 0.5], PeriodicSite: O (2.17, 2.17, 0.0) [0.5, 0.5, 0.0], PeriodicSite: O (2.17, 0.0, 2.17) [0.5, 0.0, 0.5], PeriodicSite: O (0.0, 2.17, 2.17) [0.0, 0.5, 0.5]]",81.73842379384307,"[Element K, Element Cd, Element O, Element O, Element O]",False,True,-0.7363668278500001,0.40259143399999875,0.0
386,mp,mp-1206323.cif,Cs1 Yb1 H3,CsYbH3,Pm-3m,4.612248,4.612248,4.612248,90.0,90.0,90.0,"(True, True, True)","[PeriodicSite: Cs (2.306, 2.306, 2.306) [0.5, 0.5, 0.5], PeriodicSite: Yb (0.0, 0.0, 0.0) [0.0, 0.0, 0.0], PeriodicSite: H (2.306, 0.0, 0.0) [0.5, 0.0, 0.0], PeriodicSite: H (0.0, 2.306, 0.0) [0.0, 0.5, 0.0], PeriodicSite: H (0.0, 0.0, 2.306) [0.0, 0.0, 0.5]]",98.1155750637206,"[Element Cs, Element Yb, Element H, Element H, Element H]",False,False,-0.4719278065862067,0.04999679450000061,2.9265
387,mp,mp-1099668.cif,Sm1 Ni1 O3,SmNiO3,Pm-3m,3.794022,3.794022,3.794022,90.0,90.0,90.0,"(True, True, True)","[PeriodicSite: Sm (1.897, 1.897, 1.897) [0.5, 0.5, 0.5], PeriodicSite: Ni (0.0, 0.0, 0.0) [0.0, 0.0, 0.0], PeriodicSite: O (1.897, 0.0, 0.0) [0.5, 0.0, 0.0], PeriodicSite: O (0.0, 1.897, 0.0) [0.0, 0.5, 0.0], PeriodicSite: O (0.0, 0.0, 1.897) [0.0, 0.0, 0.5]]",54.6134402222849,"[Element Sm, Element Ni, Element O, Element O, Element O]",False,True,-2.3320192762500014,0.12169233499999788,0.0
388,mp,mp-1187065.cif,Sn1 Ge1 O3,SnGeO3,Pm-3m,3.864235,3.864235,3.864235,90.0,90.0,90.0,"(True, True, True)","[PeriodicSite: Sn (0.0, 0.0, 0.0) [0.0, 0.0, 0.0], PeriodicSite: Ge (1.932, 1.932, 1.932) [0.5, 0.5, 0.5], PeriodicSite: O (1.932, 1.932, 0.0) [0.5, 0.5, 0.0], PeriodicSite: O (1.932, 0.0, 1.932) [0.5, 0.0, 0.5], PeriodicSite: O (0.0, 1.932, 1.932) [0.0, 0.5, 0.5]]",57.701963183861174,"[Element Sn, Element Ge, Element O, Element O, Element O]",False,False,-1.6336400392499997,0.27326926200000035,0.0
389,mp,mp-10608.cif,Y3 Sn1 C1,Y3SnC,Pm-3m,4.88691003,4.88691003,4.8869276,90.0,90.0,90.0,"(True, True, True)","[PeriodicSite: Y (2.443, 0.0, 2.443) [0.5, -0.0, 0.5], PeriodicSite: Y (0.0, 2.443, 2.443) [-0.0, 0.5, 0.5], PeriodicSite: Y (2.443, 2.443, 0.0) [0.5, 0.5, -0.0], PeriodicSite: Sn (0.0, 0.0, 0.0) [-0.0, -0.0, -0.0], PeriodicSite: C (2.443, 2.443, 2.443) [0.5, 0.5, 0.5]]",116.70906562829443,"[Element Y, Element Y, Element Y, Element Sn, Element C]",True,False,-0.6577221905000001,0.0,0.0
390,mp,mp-1184597.cif,Hf1 Th1 O3,HfThO3,Pm-3m,4.120356,4.120356,4.120356,90.0,90.0,90.0,"(True, True, True)","[PeriodicSite: Hf (2.06, 2.06, 2.06) [0.5, 0.5, 0.5], PeriodicSite: Th (0.0, 0.0, 0.0) [0.0, 0.0, 0.0], PeriodicSite: O (2.06, 2.06, 0.0) [0.5, 0.5, 0.0], PeriodicSite: O (2.06, 0.0, 2.06) [0.5, 0.0, 0.5], PeriodicSite: O (0.0, 2.06, 2.06) [0.0, 0.5, 0.5]]",69.95265822570208,"[Element Hf, Element Th, Element O, Element O, Element O]",False,False,-3.15896726725,0.6684135252499992,0.0
391,mp,mp-1017578.cif,Hf1 B1 Rh3,HfBRh3,Pm-3m,4.09526278,4.09526278,4.09526278,90.0,90.0,90.0,"(True, True, True)","[PeriodicSite: Hf (0.0, 0.0, 0.0) [-0.0, 0.0, 0.0], PeriodicSite: B (2.048, 2.048, 2.048) [0.5, 0.5, 0.5], PeriodicSite: Rh (0.0, 2.048, 2.048) [0.0, 0.5, 0.5], PeriodicSite: Rh (2.048, 2.048, 0.0) [0.5, 0.5, 0.0], PeriodicSite: Rh (2.048, 0.0, 2.048) [0.5, 0.0, 0.5]]",68.68237791650677,"[Element Hf, Element B, Element Rh, Element Rh, Element Rh]",True,False,-0.7770593638333324,0.0,0.0
392,mp,mp-1070321.cif,Nd1 Si3 Rh1,NdSi3Rh,I4mm,5.744010681801435,5.744010681801435,5.744010681801435,136.812490262649,136.812490262649,62.72668252685004,"(True, True, True)","[PeriodicSite: Nd (0.0, 0.0, 9.809) [0.9999, 0.9999, -0.0], PeriodicSite: Si (0.0, 0.0, 4.056) [0.4135, 0.4135, 0.0], PeriodicSite: Si (2.114, 2.22e-16, 2.58) [0.263, 0.763, 0.5], PeriodicSite: Si (2.22e-16, 2.114, 2.58) [0.763, 0.263, 0.5], PeriodicSite: Rh (0.0, 0.0, 6.42) [0.6545, 0.6545, 0.0]]",87.6708021163585,"[Element Nd, Element Si, Element Si, Element Si, Element Rh]",True,False,-0.7982661274999991,0.0,0.0
393,mp,mp-10185.cif,Mg3 Zn1 C1,Mg3ZnC,Pm-3m,4.406931,4.406931,4.406931,90.0,90.0,90.0,"(True, True, True)","[PeriodicSite: Mg (0.0, 2.203, 2.203) [0.0, 0.5, 0.5], PeriodicSite: Mg (2.203, 2.203, 0.0) [0.5, 0.5, 0.0], PeriodicSite: Mg (2.203, 0.0, 2.203) [0.5, 0.0, 0.5], PeriodicSite: Zn (0.0, 0.0, 0.0) [0.0, 0.0, 0.0], PeriodicSite: C (2.203, 2.203, 2.203) [0.5, 0.5, 0.5]]",85.58718692460187,"[Element Mg, Element Mg, Element Mg, Element Zn, Element C]",False,False,0.17467883249999971,0.23368391751241901,0.0
394,mp,mp-1187400.cif,Tc1 Sn1 O3,TcSnO3,Pm-3m,3.984185,3.984185,3.984185,90.0,90.0,90.0,"(True, True, True)","[PeriodicSite: Tc (1.992, 1.992, 1.992) [0.5, 0.5, 0.5], PeriodicSite: Sn (0.0, 0.0, 0.0) [0.0, 0.0, 0.0], PeriodicSite: O (1.992, 1.992, 0.0) [0.5, 0.5, 0.0], PeriodicSite: O (1.992, 0.0, 1.992) [0.5, 0.0, 0.5], PeriodicSite: O (0.0, 1.992, 1.992) [0.0, 0.5, 0.5]]",63.24387741514354,"[Element Tc, Element Sn, Element O, Element O, Element O]",False,False,-1.4996042032500008,0.33065778575000593,0.0
395,mp,mp-1183925.cif,Cs1 Cd1 O3,CsCdO3,Pm-3m,4.541019,4.541019,4.541019,90.0,90.0,90.0,"(True, True, True)","[PeriodicSite: Cs (0.0, 0.0, 0.0) [0.0, 0.0, 0.0], PeriodicSite: Cd (2.271, 2.271, 2.271) [0.5, 0.5, 0.5], PeriodicSite: O (2.271, 2.271, 0.0) [0.5, 0.5, 0.0], PeriodicSite: O (2.271, 0.0, 2.271) [0.5, 0.0, 0.5], PeriodicSite: O (0.0, 2.271, 2.271) [0.0, 0.5, 0.5]]",93.63968780473493,"[Element Cs, Element Cd, Element O, Element O, Element O]",False,True,-0.701339624836207,0.4332168320000003,0.0
396,mp,mp-10666.cif,Mn3 Ag1 N1,Mn3AgN,Pm-3m,4.003595,4.003595,4.003595,90.0,90.0,90.0,"(True, True, True)","[PeriodicSite: Mn (0.0, 2.002, 2.002) [0.0, 0.5, 0.5], PeriodicSite: Mn (2.002, 2.002, 0.0) [0.5, 0.5, 0.0], PeriodicSite: Mn (2.002, 0.0, 2.002) [0.5, 0.0, 0.5], PeriodicSite: Ag (0.0, 0.0, 0.0) [0.0, 0.0, 0.0], PeriodicSite: N (2.002, 2.002, 2.002) [0.5, 0.5, 0.5]]",64.17271513476186,"[Element Mn, Element Mn, Element Mn, Element Ag, Element N]",False,True,-0.14295100709195338,0.10139039691664031,0.0
397,mp,mp-10600.cif,La3 Al1 C1,La3AlC,Pm-3m,5.205131,5.205131,5.205131,90.0,90.0,90.0,"(True, True, True)","[PeriodicSite: La (2.603, 2.603, 0.0) [0.5, 0.5, 0.0], PeriodicSite: La (2.603, 0.0, 2.603) [0.5, 0.0, 0.5], PeriodicSite: La (0.0, 2.603, 2.603) [0.0, 0.5, 0.5], PeriodicSite: Al (0.0, 0.0, 0.0) [0.0, 0.0, 0.0], PeriodicSite: C (2.603, 2.603, 2.603) [0.5, 0.5, 0.5]]",141.02463755879623,"[Element La, Element La, Element La, Element Al, Element C]",False,False,-0.1852893965000007,0.03453017149999926,0.0
398,mp,mp-1187924.cif,Yb1 Au1 O3,YbAuO3,Pm-3m,4.047113,4.047113,4.047113,90.0,90.0,90.0,"(True, True, True)","[PeriodicSite: Yb (0.0, 0.0, 0.0) [0.0, 0.0, 0.0], PeriodicSite: Au (2.024, 2.024, 2.024) [0.5, 0.5, 0.5], PeriodicSite: O (2.024, 2.024, 0.0) [0.5, 0.5, 0.0], PeriodicSite: O (2.024, 0.0, 2.024) [0.5, 0.0, 0.5], PeriodicSite: O (0.0, 2.024, 2.024) [0.0, 0.5, 0.5]]",66.28816419088089,"[Element Yb, Element Au, Element O, Element O, Element O]",False,False,-1.3987339712500002,0.28271407212499877,0.0
399,mp,mp-1070375.cif,Cs1 Sn1 Cl3,CsSnCl3,Pm-3m,5.56478593,5.56478593,5.56478593,90.0,90.0,90.0,"(True, True, True)","[PeriodicSite: Cs (0.0, 0.0, 0.0) [0.0, -0.0, 0.0], PeriodicSite: Sn (2.782, 2.782, 2.782) [0.5, 0.5, 0.5], PeriodicSite: Cl (0.0, 2.782, 2.782) [0.0, 0.5, 0.5], PeriodicSite: Cl (2.782, 2.782, 0.0) [0.5, 0.5, 0.0], PeriodicSite: Cl (2.782, 0.0, 2.782) [0.5, -0.0, 0.5]]",172.32384914406742,"[Element Cs, Element Sn, Element Cl, Element Cl, Element Cl]",False,False,-1.8076041265862064,0.0038986000000003074,0.9786999999999999
400,mp,mp-1184940.cif,K1 Te1 O3,KTeO3,Pm-3m,4.114391,4.114391,4.114391,90.0,90.0,90.0,"(True, True, True)","[PeriodicSite: K (0.0, 0.0, 0.0) [0.0, 0.0, 0.0], PeriodicSite: Te (2.057, 2.057, 2.057) [0.5, 0.5, 0.5], PeriodicSite: O (2.057, 2.057, 0.0) [0.5, 0.5, 0.0], PeriodicSite: O (2.057, 0.0, 2.057) [0.5, 0.0, 0.5], PeriodicSite: O (0.0, 2.057, 2.057) [0.0, 0.5, 0.5]]",69.64928845122509,"[Element K, Element Te, Element O, Element O, Element O]",False,False,-1.643759673183333,0.08427374347222383,0.0
401,mp,mp-1100777.cif,V1 Te1 O3,VTeO3,Pm-3m,3.928666,3.928666,3.928666,90.0,90.0,90.0,"(True, True, True)","[PeriodicSite: V (1.964, 1.964, 1.964) [0.5, 0.5, 0.5], PeriodicSite: Te (0.0, 0.0, 0.0) [0.0, 0.0, 0.0], PeriodicSite: O (1.964, 1.964, 0.0) [0.5, 0.5, 0.0], PeriodicSite: O (1.964, 0.0, 1.964) [0.5, 0.0, 0.5], PeriodicSite: O (0.0, 1.964, 1.964) [0.0, 0.5, 0.5]]",60.636667488791325,"[Element V, Element Te, Element O, Element O, Element O]",False,True,-1.3465983945833344,0.6041662494285722,0.0
402,mp,mp-1013544.cif,Ca3 Sb1 As1,Ca3SbAs,Pm-3m,5.49,5.49,5.49,90.0,90.0,90.0,"(True, True, True)","[PeriodicSite: Ca (0.0, 2.745, 2.745) [0.0, 0.5, 0.5], PeriodicSite: Ca (2.745, 0.0, 2.745) [0.5, 0.0, 0.5], PeriodicSite: Ca (2.745, 2.745, 0.0) [0.5, 0.5, 0.0], PeriodicSite: Sb (0.0, 0.0, 0.0) [0.0, 0.0, 0.0], PeriodicSite: As (2.745, 2.745, 2.745) [0.5, 0.5, 0.5]]",165.46914900000002,"[Element Ca, Element Ca, Element Ca, Element Sb, Element As]",False,False,-0.9493456090000002,0.15719860000000008,0.40059999999999985
403,mp,mp-10602.cif,Sm3 Ga1 C1,Sm3GaC,Pm-3m,5.00216,5.00216,5.00216,90.0,90.0,90.0,"(True, True, True)","[PeriodicSite: Sm (2.501, 0.0, 2.501) [0.5, 0.0, 0.5], PeriodicSite: Sm (2.501, 2.501, 0.0) [0.5, 0.5, 0.0], PeriodicSite: Sm (0.0, 2.501, 2.501) [0.0, 0.5, 0.5], PeriodicSite: Ga (0.0, 0.0, 0.0) [0.0, 0.0, 0.0], PeriodicSite: C (2.501, 2.501, 2.501) [0.5, 0.5, 0.5]]",125.16206999407768,"[Element Sm, Element Sm, Element Sm, Element Ga, Element C]",False,False,-0.315997746,0.022991252999998935,0.0
404,mp,mp-1183044.cif,Zr1 Tl1 O3,ZrTlO3,Pm-3m,4.212646,4.212646,4.212646,90.0,90.0,90.0,"(True, True, True)","[PeriodicSite: Zr (2.106, 2.106, 2.106) [0.5, 0.5, 0.5], PeriodicSite: Tl (0.0, 0.0, 0.0) [0.0, 0.0, 0.0], PeriodicSite: O (2.106, 2.106, 0.0) [0.5, 0.5, 0.0], PeriodicSite: O (2.106, 0.0, 2.106) [0.5, 0.0, 0.5], PeriodicSite: O (0.0, 2.106, 2.106) [0.0, 0.5, 0.5]]",74.75924335094658,"[Element Zr, Element Tl, Element O, Element O, Element O]",False,False,-2.456822419916668,0.23488012733333274,0.0
405,mp,mp-1183913.cif,Cs1 Pd1 O3,CsPdO3,Pm-3m,4.199705,4.199705,4.199705,90.0,90.0,90.0,"(True, True, True)","[PeriodicSite: Cs (0.0, 0.0, 0.0) [0.0, 0.0, 0.0], PeriodicSite: Pd (2.1, 2.1, 2.1) [0.5, 0.5, 0.5], PeriodicSite: O (2.1, 2.1, 0.0) [0.5, 0.5, 0.0], PeriodicSite: O (2.1, 0.0, 2.1) [0.5, 0.0, 0.5], PeriodicSite: O (0.0, 2.1, 2.1) [0.0, 0.5, 0.5]]",74.07238969648931,"[Element Cs, Element Pd, Element O, Element O, Element O]",False,True,-0.6908060788362071,0.2386777190000018,0.0
406,mp,mp-10280.cif,Nd3 Ga1 C1,Nd3GaC,Pm-3m,5.502933,5.502933,5.502933,90.0,90.0,90.0,"(True, True, True)","[PeriodicSite: Nd (2.751, 2.751, 0.0) [0.5, 0.5, 0.0], PeriodicSite: Nd (2.751, 0.0, 2.751) [0.5, 0.0, 0.5], PeriodicSite: Nd (0.0, 2.751, 2.751) [0.0, 0.5, 0.5], PeriodicSite: Ga (2.751, 2.751, 2.751) [0.5, 0.5, 0.5], PeriodicSite: C (0.0, 0.0, 0.0) [0.0, 0.0, 0.0]]",166.64131171629958,"[Element Nd, Element Nd, Element Nd, Element Ga, Element C]",False,False,1.2121663145,1.506786414375,0.0
407,mp,mp-1187714.cif,U1 Pd1 O3,UPdO3,Pm-3m,4.210241,4.210241,4.210241,90.0,90.0,90.0,"(True, True, True)","[PeriodicSite: U (2.105, 2.105, 2.105) [0.5, 0.5, 0.5], PeriodicSite: Pd (0.0, 0.0, 0.0) [0.0, 0.0, 0.0], PeriodicSite: O (2.105, 2.105, 0.0) [0.5, 0.5, 0.0], PeriodicSite: O (2.105, 0.0, 2.105) [0.5, 0.0, 0.5], PeriodicSite: O (0.0, 2.105, 2.105) [0.0, 0.5, 0.5]]",74.63127625787703,"[Element U, Element Pd, Element O, Element O, Element O]",False,False,-2.449419121249999,0.4410877060000047,0.6282000000000005
408,mp,mp-1183971.cif,Cs1 Ru1 O3,CsRuO3,Pm-3m,4.070421,4.070421,4.070421,90.0,90.0,90.0,"(True, True, True)","[PeriodicSite: Cs (0.0, 0.0, 0.0) [0.0, 0.0, 0.0], PeriodicSite: Ru (2.035, 2.035, 2.035) [0.5, 0.5, 0.5], PeriodicSite: O (2.035, 2.035, 0.0) [0.5, 0.5, 0.0], PeriodicSite: O (2.035, 0.0, 2.035) [0.5, 0.0, 0.5], PeriodicSite: O (0.0, 2.035, 2.035) [0.0, 0.5, 0.5]]",67.44006663288721,"[Element Cs, Element Ru, Element O, Element O, Element O]",False,True,-1.2710589028362071,0.37826305899998935,0.0
409,mp,mp-1184957.cif,K1 Rb1 O3,KRbO3,Pm-3m,5.002601,5.002601,5.002601,90.0,90.0,90.0,"(True, True, True)","[PeriodicSite: K (2.501, 2.501, 2.501) [0.5, 0.5, 0.5], PeriodicSite: Rb (0.0, 0.0, 0.0) [0.0, 0.0, 0.0], PeriodicSite: O (2.501, 2.501, 0.0) [0.5, 0.5, 0.0], PeriodicSite: O (2.501, 0.0, 2.501) [0.5, 0.0, 0.5], PeriodicSite: O (0.0, 2.501, 2.501) [0.0, 0.5, 0.5]]",125.1951764956113,"[Element K, Element Rb, Element O, Element O, Element O]",False,True,-0.33602718134999987,0.7662700690000004,0.0
410,mp,mp-1186334.cif,Np1 Mo1 O3,NpMoO3,Pm-3m,4.025898,4.025898,4.025898,90.0,90.0,90.0,"(True, True, True)","[PeriodicSite: Np (0.0, 0.0, 0.0) [0.0, 0.0, 0.0], PeriodicSite: Mo (2.013, 2.013, 2.013) [0.5, 0.5, 0.5], PeriodicSite: O (2.013, 2.013, 0.0) [0.5, 0.5, 0.0], PeriodicSite: O (2.013, 0.0, 2.013) [0.5, 0.0, 0.5], PeriodicSite: O (0.0, 2.013, 2.013) [0.0, 0.5, 0.5]]",65.25116984680244,"[Element Np, Element Mo, Element O, Element O, Element O]",False,True,-2.0935429130000003,0.6744095274999999,0.0