,provider,id,Full_Formula,formula,space_group,a_lattice_param,b_lattice_param,c_lattice_param,aplha_degree,beta_degree,gamma_degree,pbc,sits,volume,species_at_sites,is_stable,is_magnetic,formation_energy,energy_above_hull,band_gap
636,mp,mp-1016848.cif,Sr1 Ir1 O3,SrIrO3,Pm-3m,3.998048,3.998048,3.998048,90.0,90.0,90.0,"(True, True, True)","[PeriodicSite: Sr (0.0, 0.0, 0.0) [0.0, 0.0, 0.0], PeriodicSite: Ir (1.999, 1.999, 1.999) [0.5, 0.5, 0.5], PeriodicSite: O (1.999, 1.999, 0.0) [0.5, 0.5, 0.0], PeriodicSite: O (1.999, 0.0, 1.999) [0.5, 0.0, 0.5], PeriodicSite: O (0.0, 1.999, 1.999) [0.0, 0.5, 0.5]]",63.90634971621028,"[Element Sr, Element Ir, Element O, Element O, Element O]",False,False,-1.8934774685833333,0.14175429800000483,0.0
637,mp,mp-1183426.cif,Be1 Cu1 O3,BeCuO3,Pm-3m,3.461833,3.461833,3.461833,90.0,90.0,90.0,"(True, True, True)","[PeriodicSite: Be (1.731, 1.731, 1.731) [0.5, 0.5, 0.5], PeriodicSite: Cu (0.0, 0.0, 0.0) [0.0, 0.0, 0.0], PeriodicSite: O (1.731, 1.731, 0.0) [0.5, 0.5, 0.0], PeriodicSite: O (1.731, 0.0, 1.731) [0.5, 0.0, 0.5], PeriodicSite: O (0.0, 1.731, 1.731) [0.0, 0.5, 0.5]]",41.487602710206495,"[Element Be, Element Cu, Element O, Element O, Element O]",False,False,-0.8230235522500002,0.8353194197500002,0.0
638,mp,mp-1206909.cif,Ca1 B1 Pd3,CaBPd3,Pm-3m,4.27841036,4.27843393,4.27842164,90.0,90.0,90.0,"(True, True, True)","[PeriodicSite: Ca (2.139, 2.139, 2.139) [0.5, 0.5, 0.5], PeriodicSite: B (0.0, 0.0, 0.0) [-0.0, 0.0, 0.0], PeriodicSite: Pd (2.139, 0.0, 0.0) [0.5, 0.0, 0.0], PeriodicSite: Pd (0.0, 2.139, 0.0) [0.0, 0.5, 0.0], PeriodicSite: Pd (0.0, 0.0, 2.139) [-0.0, -0.0, 0.5]]",78.316063381212,"[Element Ca, Element B, Element Pd, Element Pd, Element Pd]",True,False,-0.5602908418333336,0.0,0.0
639,mp,mp-1186742.cif,Pr1 Be1 O3,PrBeO3,Pm-3m,3.680409,3.680409,3.680409,90.0,90.0,90.0,"(True, True, True)","[PeriodicSite: Pr (0.0, 0.0, 0.0) [0.0, 0.0, 0.0], PeriodicSite: Be (1.84, 1.84, 1.84) [0.5, 0.5, 0.5], PeriodicSite: O (1.84, 1.84, 0.0) [0.5, 0.5, 0.0], PeriodicSite: O (1.84, 0.0, 1.84) [0.5, 0.0, 0.5], PeriodicSite: O (0.0, 1.84, 1.84) [0.0, 0.5, 0.5]]",49.85265037165066,"[Element Pr, Element Be, Element O, Element O, Element O]",False,True,-2.856920263250001,0.25240653,0.0
640,mp,mp-1183242.cif,B1 Pd1 O3,BPdO3,Pm-3m,3.428706,3.428706,3.428706,90.0,90.0,90.0,"(True, True, True)","[PeriodicSite: B (1.714, 1.714, 1.714) [0.5, 0.5, 0.5], PeriodicSite: Pd (0.0, 0.0, 0.0) [0.0, 0.0, 0.0], PeriodicSite: O (1.714, 1.714, 0.0) [0.5, 0.5, 0.0], PeriodicSite: O (1.714, 0.0, 1.714) [0.5, 0.0, 0.5], PeriodicSite: O (0.0, 1.714, 1.714) [0.0, 0.5, 0.5]]",40.30795288597972,"[Element B, Element Pd, Element O, Element O, Element O]",False,True,-0.5573131090833329,1.2187017236666673,0.0
641,mp,mp-1219974.cif,Pr1 Ga3 Pd1,PrGa3Pd,I-4m2,6.12742424613152,6.12742424613152,6.12742424613152,139.51517095677684,139.51517095677684,58.590187499930536,"(True, True, True)","[PeriodicSite: Pr (0.0, 0.0, 0.0) [0.0, 0.0, -0.0], PeriodicSite: Ga (0.0, 0.0, 6.59) [0.6166, 0.6166, -0.0], PeriodicSite: Ga (0.0, 0.0, 4.098) [0.3834, 0.3834, 0.0], PeriodicSite: Ga (2.22e-16, 2.12, 2.672) [0.75, 0.25, 0.5], PeriodicSite: Pd (2.12, 2.22e-16, 2.672) [0.25, 0.75, 0.5]]",96.07268576453242,"[Element Pr, Element Ga, Element Ga, Element Ga, Element Pd]",True,False,-0.6887432914999998,0.0,0.0
642,mp,mp-1013707.cif,Ba3 P1 N1,Ba3PN,Pm-3m,6.06005,6.06005,6.06005,90.0,90.0,90.0,"(True, True, True)","[PeriodicSite: Ba (0.0, 3.03, 3.03) [0.0, 0.5, 0.5], PeriodicSite: Ba (3.03, 0.0, 3.03) [0.5, 0.0, 0.5], PeriodicSite: Ba (3.03, 3.03, 0.0) [0.5, 0.5, 0.0], PeriodicSite: P (3.03, 3.03, 3.03) [0.5, 0.5, 0.5], PeriodicSite: N (0.0, 0.0, 0.0) [0.0, 0.0, 0.0]]",222.55052458545018,"[Element Ba, Element Ba, Element Ba, Element P, Element N]",False,False,0.25651413433333303,1.032992875333333,0.0
643,mp,mp-1183045.cif,Zr1 Ti1 O3,ZrTiO3,Pm-3m,3.859099,3.859099,3.859099,90.0,90.0,90.0,"(True, True, True)","[PeriodicSite: Zr (0.0, 0.0, 0.0) [0.0, 0.0, 0.0], PeriodicSite: Ti (1.93, 1.93, 1.93) [0.5, 0.5, 0.5], PeriodicSite: O (1.93, 1.93, 0.0) [0.5, 0.5, 0.0], PeriodicSite: O (1.93, 0.0, 1.93) [0.5, 0.0, 0.5], PeriodicSite: O (0.0, 1.93, 1.93) [0.0, 0.5, 0.5]]",57.47219178112415,"[Element Zr, Element Ti, Element O, Element O, Element O]",False,False,-2.730187883916666,0.7219286570000047,0.0
644,mp,mp-1070238.cif,Th1 Si3 Rh1,ThSi3Rh,I4mm,5.688169811831193,5.688169811831193,5.688169811831193,135.93662979261285,135.93662979261285,64.07832176794577,"(True, True, True)","[PeriodicSite: Th (0.0, 0.0, -0.0003189) [-3.307e-05, -3.307e-05, -0.0], PeriodicSite: Si (0.0, 0.0, 3.951) [0.4097, 0.4097, 0.0], PeriodicSite: Si (2.134, 0.0, 2.55) [0.2644, 0.7644, 0.5], PeriodicSite: Si (0.0, 2.134, 2.55) [0.7644, 0.2644, 0.5], PeriodicSite: Rh (0.0, 0.0, 6.322) [0.6556, 0.6556, 0.0]]",87.81147595094573,"[Element Th, Element Si, Element Si, Element Si, Element Rh]",True,False,-0.8209094620000001,0.0,0.0
645,mp,mp-1013734.cif,Ba3 As1 N1,Ba3AsN,Pm-3m,5.487585,5.487585,5.487585,90.0,90.0,90.0,"(True, True, True)","[PeriodicSite: Ba (0.0, 2.744, 2.744) [0.0, 0.5, 0.5], PeriodicSite: Ba (2.744, 0.0, 2.744) [0.5, 0.0, 0.5], PeriodicSite: Ba (2.744, 2.744, 0.0) [0.5, 0.5, 0.0], PeriodicSite: As (0.0, 0.0, 0.0) [0.0, 0.0, 0.0], PeriodicSite: N (2.744, 2.744, 2.744) [0.5, 0.5, 0.5]]",165.25088001816093,"[Element Ba, Element Ba, Element Ba, Element As, Element N]",False,False,-0.7453791680000001,0.08112790405128223,0.0
646,mp,mp-1183282.cif,Ba1 Be1 O3,BaBeO3,Pm-3m,3.894084,3.894084,3.894084,90.0,90.0,90.0,"(True, True, True)","[PeriodicSite: Ba (0.0, 0.0, 0.0) [0.0, 0.0, 0.0], PeriodicSite: Be (1.947, 1.947, 1.947) [0.5, 0.5, 0.5], PeriodicSite: O (1.947, 1.947, 0.0) [0.5, 0.5, 0.0], PeriodicSite: O (1.947, 0.0, 1.947) [0.5, 0.0, 0.5], PeriodicSite: O (0.0, 1.947, 1.947) [0.0, 0.5, 0.5]]",59.04946220190078,"[Element Ba, Element Be, Element O, Element O, Element O]",False,True,-2.0267104402500005,0.5173108549999998,0.0
647,mp,mp-1186346.cif,Np1 Sn1 O3,NpSnO3,Pm-3m,4.159438,4.159438,4.159438,90.0,90.0,90.0,"(True, True, True)","[PeriodicSite: Np (0.0, 0.0, 0.0) [0.0, 0.0, 0.0], PeriodicSite: Sn (2.08, 2.08, 2.08) [0.5, 0.5, 0.5], PeriodicSite: O (2.08, 2.08, 0.0) [0.5, 0.5, 0.0], PeriodicSite: O (2.08, 0.0, 2.08) [0.5, 0.0, 0.5], PeriodicSite: O (0.0, 2.08, 2.08) [0.0, 0.5, 0.5]]",71.96212269995561,"[Element Np, Element Sn, Element O, Element O, Element O]",False,True,-1.9924251640000001,0.820941680999999,0.0
648,mp,mp-1222880.cif,La1 Be1 Al3,LaBeAl3,I-4m2,6.178596263949119,6.178596263949119,6.178596263949119,139.59346190330385,139.59346190330385,58.47109196940521,"(True, True, True)","[PeriodicSite: La (0.0, 0.0, 0.0) [0.0, 0.0, 0.0], PeriodicSite: Be (2.134, 0.0, 2.696) [0.25, 0.75, 0.5], PeriodicSite: Al (0.0, 2.134, 2.696) [0.75, 0.25, 0.5], PeriodicSite: Al (0.0, 0.0, 6.686) [0.62, 0.62, 0.0], PeriodicSite: Al (0.0, 0.0, 4.097) [0.38, 0.38, 0.0]]",98.19232399573505,"[Element La, Element Be, Element Al, Element Al, Element Al]",False,False,-0.25204439800000034,0.11020062603846092,0.0
649,mp,mp-1016836.cif,Zn1 Os1 O3,ZnOsO3,Pm-3m,3.896879,3.896879,3.896879,90.0,90.0,90.0,"(True, True, True)","[PeriodicSite: Zn (0.0, 0.0, 0.0) [0.0, 0.0, 0.0], PeriodicSite: Os (1.948, 1.948, 1.948) [0.5, 0.5, 0.5], PeriodicSite: O (1.948, 1.948, 0.0) [0.5, 0.5, 0.0], PeriodicSite: O (1.948, 0.0, 1.948) [0.5, 0.0, 0.5], PeriodicSite: O (0.0, 1.948, 1.948) [0.0, 0.5, 0.5]]",59.17670270509917,"[Element Zn, Element Os, Element O, Element O, Element O]",False,True,-0.9600298232500002,0.5631337200000006,0.0
650,mp,mp-1183145.cif,Ac1 Pd1 O3,AcPdO3,Pm-3m,4.05520794,4.05520691,4.05520589,90.0,90.0,90.0,"(True, True, True)","[PeriodicSite: Ac (0.0, 0.0, 0.0) [-0.0, 0.0, 0.0], PeriodicSite: Pd (2.028, 2.028, 2.028) [0.5, 0.5, 0.5], PeriodicSite: O (2.028, 2.028, 0.0) [0.5, 0.5, -0.0], PeriodicSite: O (2.028, 0.0, 2.028) [0.5, 0.0, 0.5], PeriodicSite: O (0.0, 2.028, 2.028) [-0.0, 0.5, 0.5]]",66.68667373916479,"[Element Ac, Element Pd, Element O, Element O, Element O]",False,False,-2.2377187817499995,0.008102041000000781,0.0
651,mp,mp-1013554.cif,Sr3 P1 N1,Sr3PN,Pm-3m,5.05920313,5.05920313,5.05920313,90.0,90.0,90.0,"(True, True, True)","[PeriodicSite: Sr (0.0, 2.53, 2.53) [-0.0, 0.5, 0.5], PeriodicSite: Sr (2.53, 0.0, 2.53) [0.5, -0.0, 0.5], PeriodicSite: Sr (2.53, 2.53, 0.0) [0.5, 0.5, -0.0], PeriodicSite: P (0.0, 0.0, 0.0) [0.0, -0.0, 0.0], PeriodicSite: N (2.53, 2.53, 2.53) [0.5, 0.5, 0.5]]",129.49301741662526,"[Element Sr, Element Sr, Element Sr, Element P, Element N]",False,False,-0.8476348056666666,0.016156827362504345,0.5196999999999998
652,mp,mp-1068320.cif,Cs1 S1 O3,CsSO3,R3m,5.038275366549351,5.038275366549351,5.038275320923321,77.32926370986367,77.32926370986367,77.32926742202226,"(True, True, True)","[PeriodicSite: Cs (9.25, 0.0, 4.818) [0.9964, 0.9964, 0.9964], PeriodicSite: S (4.106, 0.0, 2.139) [0.4423, 0.4423, 0.4423], PeriodicSite: O (4.417, 0.0, 0.6742) [0.5363, 0.5363, 0.1394], PeriodicSite: O (3.418, 1.249, 2.593) [0.1394, 0.5363, 0.5363], PeriodicSite: O (3.418, -1.249, 2.593) [0.5363, 0.1394, 0.5363]]",119.75336236777552,"[Element Cs, Element S, Element O, Element O, Element O]",False,True,-1.8880848994612065,0.1874307605000034,0.4314
653,mp,mp-1180300.cif,N1 Cl1 O3,NClO3,Cm,5.034395635748645,5.034395635748645,3.997316303971203,81.68647510628627,81.68647510628627,108.20341218364328,"(True, True, True)","[PeriodicSite: N (0.0, 3.729, 1.874) [0.5509, 0.5509, 0.4838], PeriodicSite: Cl (0.0, 1.282, 3.051) [0.08565, 0.08565, 0.7876], PeriodicSite: O (0.0, 2.931, 3.311) [0.3538, 0.3538, 0.8548], PeriodicSite: O (-1.11, 3.979, 1.489) [0.4738, 0.7459, 0.3844], PeriodicSite: O (1.11, 3.979, 1.489) [0.7459, 0.4738, 0.3844]]",93.27013631263736,"[Element N, Element Cl, Element O, Element O, Element O]",False,False,-0.4257964962499997,0.09692177300000004,2.0014
654,mp,mp-1220156.cif,Nd1 Ga3 Au1,NdGa3Au,I4mm,4.298089557636791,4.29808992785869,6.185976480261802,69.75298232989032,69.75296864741287,90.12888273249189,"(True, True, True)","[PeriodicSite: Nd (4.292, 4.292, 0.1465) [0.9859, 0.9859, 0.02765], PeriodicSite: Ga (4.296, 2.142, 2.691) [0.7505, 0.2501, 0.4994], PeriodicSite: Ga (2.142, 4.296, 2.691) [0.2501, 0.7505, 0.4994], PeriodicSite: Ga (2.147, 2.147, 1.171) [0.3915, 0.3915, 0.2173], PeriodicSite: Au (4.292, 4.292, 4.076) [0.622, 0.622, 0.7563]]",99.61985183812425,"[Element Nd, Element Ga, Element Ga, Element Ga, Element Au]",True,False,-0.5991544979999993,0.0,0.0
655,mp,mp-1013553.cif,Sr3 As1 P1,Sr3AsP,Pm-3m,5.7,5.7,5.7,90.0,90.0,90.0,"(True, True, True)","[PeriodicSite: Sr (0.0, 2.85, 2.85) [0.0, 0.5, 0.5], PeriodicSite: Sr (2.85, 0.0, 2.85) [0.5, 0.0, 0.5], PeriodicSite: Sr (2.85, 2.85, 0.0) [0.5, 0.5, 0.0], PeriodicSite: As (0.0, 0.0, 0.0) [0.0, 0.0, 0.0], PeriodicSite: P (2.85, 2.85, 2.85) [0.5, 0.5, 0.5]]",185.193,"[Element Sr, Element Sr, Element Sr, Element As, Element P]",False,False,-0.7772213916666665,0.2888151169166653,0.0
656,mp,mp-1076368.cif,Mg1 Fe1 O3,MgFeO3,Pm-3m,3.765865,3.765865,3.765865,90.0,90.0,90.0,"(True, True, True)","[PeriodicSite: Mg (1.883, 1.883, 1.883) [0.5, 0.5, 0.5], PeriodicSite: Fe (0.0, 0.0, 0.0) [0.0, 0.0, 0.0], PeriodicSite: O (1.883, 0.0, 0.0) [0.5, 0.0, 0.0], PeriodicSite: O (0.0, 1.883, 0.0) [0.0, 0.5, 0.0], PeriodicSite: O (0.0, 0.0, 1.883) [0.0, 0.0, 0.5]]",53.40651528572358,"[Element Mg, Element Fe, Element O, Element O, Element O]",False,True,-1.6227752672499989,0.46402345362500075,0.0
657,mp,mp-1069707.cif,Eu1 Si3 Ir1,EuSi3Ir,I4mm,5.818493813531728,5.818493813531728,5.818493813531728,137.0997678020197,137.0997678020197,62.28458223373051,"(True, True, True)","[PeriodicSite: Eu (0.0, 0.0, 0.008556) [0.000859, 0.000859, 0.0], PeriodicSite: Si (0.0, 0.0, 4.131) [0.4148, 0.4148, 0.0], PeriodicSite: Si (2.128, -2.22e-16, 2.629) [0.264, 0.764, 0.5], PeriodicSite: Si (-2.22e-16, 2.128, 2.629) [0.764, 0.264, 0.5], PeriodicSite: Ir (0.0, 0.0, 6.517) [0.6544, 0.6544, 0.0]]",90.18536197722474,"[Element Eu, Element Si, Element Si, Element Si, Element Ir]",True,True,-0.7271606320000004,0.0,0.0
658,mp,mp-1218256.cif,Sr1 In3 Hg1,SrIn3Hg,I4mm,7.137794480666942,7.137794480666942,7.137794480666942,141.4088978567107,141.4088978567107,55.72020474790206,"(True, True, True)","[PeriodicSite: Sr (0.0, 0.0, 0.08275) [0.006557, 0.006557, 0.0], PeriodicSite: In (-2.22e-16, 2.359, 3.124) [0.7475, 0.2475, 0.5], PeriodicSite: In (2.359, -2.22e-16, 3.124) [0.2475, 0.7475, 0.5], PeriodicSite: In (0.0, 0.0, 4.921) [0.3899, 0.3899, -0.0], PeriodicSite: Hg (0.0, 0.0, 7.68) [0.6085, 0.6085, -0.0]]",140.42270703303868,"[Element Sr, Element In, Element In, Element In, Element Hg]",True,False,-0.3001771983333331,0.0,0.0
659,mp,mp-1016926.cif,Zn1 Ir1 O3,ZnIrO3,Pm-3m,3.907016,3.907016,3.907016,90.0,90.0,90.0,"(True, True, True)","[PeriodicSite: Zn (0.0, 0.0, 0.0) [0.0, 0.0, 0.0], PeriodicSite: Ir (1.954, 1.954, 1.954) [0.5, 0.5, 0.5], PeriodicSite: O (1.954, 1.954, 0.0) [0.5, 0.5, 0.0], PeriodicSite: O (1.954, 0.0, 1.954) [0.5, 0.0, 0.5], PeriodicSite: O (0.0, 1.954, 1.954) [0.0, 0.5, 0.5]]",59.639716349152586,"[Element Zn, Element Ir, Element O, Element O, Element O]",False,True,-0.7107144592499999,0.7629442670000035,0.0
660,mp,mp-1224113.cif,Ho1 Al3 Cu1,HoAl3Cu,I4mm,4.096633730945271,4.096610025849011,6.04686473525429,70.23384906253625,70.23457675999751,90.04531083593923,"(True, True, True)","[PeriodicSite: Ho (-4.096, -4.096, -0.04965) [0.9954, 0.9954, 0.009611], PeriodicSite: Al (-2.048, -2.048, -1.047) [0.4015, 0.4015, 0.1973], PeriodicSite: Al (-2.046, -4.096, -2.74) [0.7421, 0.2418, 0.5163], PeriodicSite: Al (-4.096, -2.046, -2.74) [0.2418, 0.7421, 0.5163], PeriodicSite: Cu (-4.092, -4.092, -4.037) [0.6192, 0.6192, 0.7605]]",89.11180377091058,"[Element Ho, Element Al, Element Al, Element Al, Element Cu]",True,False,-0.4269712560000002,0.0,0.0
661,mp,mp-1187202.cif,Sr1 Pt1 O3,SrPtO3,Pm-3m,4.06243,4.06243,4.06243,90.0,90.0,90.0,"(True, True, True)","[PeriodicSite: Sr (0.0, 0.0, 0.0) [0.0, 0.0, 0.0], PeriodicSite: Pt (2.031, 2.031, 2.031) [0.5, 0.5, 0.5], PeriodicSite: O (2.031, 2.031, 0.0) [0.5, 0.5, 0.0], PeriodicSite: O (2.031, 0.0, 2.031) [0.5, 0.0, 0.5], PeriodicSite: O (0.0, 2.031, 2.031) [0.0, 0.5, 0.5]]",67.0436533800309,"[Element Sr, Element Pt, Element O, Element O, Element O]",False,False,-1.701633760583333,0.15976486974999915,0.0
662,mp,mp-1188011.cif,Zr1 Be1 O3,ZrBeO3,Pm-3m,3.469162,3.469162,3.469162,90.0,90.0,90.0,"(True, True, True)","[PeriodicSite: Zr (0.0, 0.0, 0.0) [0.0, 0.0, 0.0], PeriodicSite: Be (1.735, 1.735, 1.735) [0.5, 0.5, 0.5], PeriodicSite: O (1.735, 1.735, 0.0) [0.5, 0.5, 0.0], PeriodicSite: O (1.735, 0.0, 1.735) [0.5, 0.0, 0.5], PeriodicSite: O (0.0, 1.735, 1.735) [0.0, 0.5, 0.5]]",41.75165948717156,"[Element Zr, Element Be, Element O, Element O, Element O]",False,False,-2.8679639182499996,0.6621124319999971,0.6259000000000006
663,mp,mp-1206822.cif,Pr3 Sn1 N1,Pr3SnN,Pm-3m,5.05045937,5.05046559,5.05046559,90.0,90.0,90.0,"(True, True, True)","[PeriodicSite: Pr (2.525, 0.0, 0.0) [0.5, 0.0, 0.0], PeriodicSite: Pr (0.0, 2.525, 0.0) [-0.0, 0.5, 0.0], PeriodicSite: Pr (0.0, 0.0, 2.525) [0.0, 0.0, 0.5], PeriodicSite: Sn (2.525, 2.525, 2.525) [0.5, 0.5, 0.5], PeriodicSite: N (0.0, 0.0, 0.0) [-0.0, -0.0, -0.0]]",128.8230907563521,"[Element Pr, Element Pr, Element Pr, Element Sn, Element N]",True,False,-0.9924605849999999,0.0,0.0
664,mp,mp-1100325.cif,Ca1 Sn1 S3,CaSnS3,P4mm,4.676422,4.676422,6.142467,90.0,90.0,90.0,"(True, True, True)","[PeriodicSite: Ca (2.338, 2.338, 2.277) [0.5, 0.5, 0.3707], PeriodicSite: Sn (0.0, 0.0, 4.954) [0.0, 0.0, 0.8064], PeriodicSite: S (0.0, 0.0, 1.191) [0.0, 0.0, 0.1939], PeriodicSite: S (0.0, 2.338, 3.897) [0.0, 0.5, 0.6345], PeriodicSite: S (2.338, 0.0, 3.897) [0.5, 0.0, 0.6345]]",134.3291361459511,"[Element Ca, Element Sn, Element S, Element S, Element S]",False,False,-1.1630853208750005,0.22514015324999814,0.0
665,mp,mp-1076732.cif,K1 Cr1 O3,KCrO3,Pm-3m,3.864733,3.864733,3.864733,90.0,90.0,90.0,"(True, True, True)","[PeriodicSite: K (1.932, 1.932, 1.932) [0.5, 0.5, 0.5], PeriodicSite: Cr (0.0, 0.0, 0.0) [0.0, 0.0, 0.0], PeriodicSite: O (1.932, 0.0, 0.0) [0.5, 0.0, 0.0], PeriodicSite: O (0.0, 1.932, 0.0) [0.0, 0.5, 0.0], PeriodicSite: O (0.0, 0.0, 1.932) [0.0, 0.0, 0.5]]",57.72427493335193,"[Element K, Element Cr, Element O, Element O, Element O]",False,True,-1.6765655998500002,0.39039481166666423,0.0
666,mp,mp-1185320.cif,Li1 Fe1 O3,LiFeO3,Pm-3m,3.776936,3.776936,3.776936,90.0,90.0,90.0,"(True, True, True)","[PeriodicSite: Li (0.0, 0.0, 0.0) [0.0, 0.0, 0.0], PeriodicSite: Fe (1.888, 1.888, 1.888) [0.5, 0.5, 0.5], PeriodicSite: O (1.888, 1.888, 0.0) [0.5, 0.5, 0.0], PeriodicSite: O (1.888, 0.0, 1.888) [0.5, 0.0, 0.5], PeriodicSite: O (0.0, 1.888, 1.888) [0.0, 0.5, 0.5]]",53.878919459443516,"[Element Li, Element Fe, Element O, Element O, Element O]",False,True,-1.2507425499166664,0.3148129761000025,0.0
667,mp,mp-1070713.cif,In1 Ni3 N1,InNi3N,Pm-3m,3.83985571,3.83985571,3.83985571,90.0,90.0,90.0,"(True, True, True)","[PeriodicSite: In (0.0, 0.0, 0.0) [0.0, 0.0, -0.0], PeriodicSite: Ni (1.92, 1.92, 0.0) [0.5, 0.5, -0.0], PeriodicSite: Ni (1.92, 0.0, 1.92) [0.5, 0.0, 0.5], PeriodicSite: Ni (0.0, 1.92, 1.92) [0.0, 0.5, 0.5], PeriodicSite: N (1.92, 1.92, 1.92) [0.5, 0.5, 0.5]]",56.61672131196684,"[Element In, Element Ni, Element Ni, Element Ni, Element N]",True,False,-0.15519306699999974,0.0,0.0
668,mp,mp-1184959.cif,K1 Sr1 O3,KSrO3,Pm-3m,4.84673,4.84673,4.84673,90.0,90.0,90.0,"(True, True, True)","[PeriodicSite: K (0.0, 0.0, 0.0) [0.0, 0.0, 0.0], PeriodicSite: Sr (2.423, 2.423, 2.423) [0.5, 0.5, 0.5], PeriodicSite: O (2.423, 2.423, 0.0) [0.5, 0.5, 0.0], PeriodicSite: O (2.423, 0.0, 2.423) [0.5, 0.0, 0.5], PeriodicSite: O (0.0, 2.423, 2.423) [0.0, 0.5, 0.5]]",113.85352482172922,"[Element K, Element Sr, Element O, Element O, Element O]",False,True,-1.3353097011833335,0.506905779000002,0.0
669,mp,mp-1013542.cif,Ca3 Bi1 N1,Ca3BiN,Pm-3m,5.85,5.85,5.85,90.0,90.0,90.0,"(True, True, True)","[PeriodicSite: Ca (0.0, 2.925, 2.925) [0.0, 0.5, 0.5], PeriodicSite: Ca (2.925, 0.0, 2.925) [0.5, 0.0, 0.5], PeriodicSite: Ca (2.925, 2.925, 0.0) [0.5, 0.5, 0.0], PeriodicSite: Bi (2.925, 2.925, 2.925) [0.5, 0.5, 0.5], PeriodicSite: N (0.0, 0.0, 0.0) [0.0, 0.0, 0.0]]",200.20162499999998,"[Element Ca, Element Ca, Element Ca, Element Bi, Element N]",False,False,0.6565928069999998,1.752558041999999,0.0
670,mp,mp-9200.cif,K3 Au1 O1,K3AuO,Pm-3m,5.22438571,5.22438571,5.22438571,90.0,90.0,90.0,"(True, True, True)","[PeriodicSite: K (0.0, 2.612, 2.612) [-0.0, 0.5, 0.5], PeriodicSite: K (2.612, 2.612, 0.0) [0.5, 0.5, -0.0], PeriodicSite: K (2.612, 0.0, 2.612) [0.5, -0.0, 0.5], PeriodicSite: Au (0.0, 0.0, 0.0) [-0.0, -0.0, -0.0], PeriodicSite: O (2.612, 2.612, 2.612) [0.5, 0.5, 0.5]]",142.59546003697025,"[Element K, Element K, Element K, Element Au, Element O]",True,False,-0.8925566175500002,0.0,0.5612
671,mp,mp-1112985.cif,Cs1 Au1 F3,CsAuF3,Pm-3m,4.567677,4.567677,4.567677,90.0,90.0,90.0,"(True, True, True)","[PeriodicSite: Cs (2.284, 2.284, 2.284) [0.5, 0.5, 0.5], PeriodicSite: Au (0.0, 0.0, 0.0) [0.0, 0.0, 0.0], PeriodicSite: F (0.0, 0.0, 2.284) [0.0, 0.0, 0.5], PeriodicSite: F (2.284, 0.0, 0.0) [0.5, 0.0, 0.0], PeriodicSite: F (0.0, 2.284, 0.0) [0.0, 0.5, 0.0]]",95.2985201030349,"[Element Cs, Element Au, Element F, Element F, Element F]",False,False,-1.9205814850862069,0.10412809133333312,0.0
672,mp,mp-973486.cif,Lu1 V1 O3,LuVO3,Pm-3m,3.853611,3.853611,3.853611,90.0,90.0,90.0,"(True, True, True)","[PeriodicSite: Lu (0.0, 0.0, 0.0) [0.0, 0.0, 0.0], PeriodicSite: V (1.927, 1.927, 1.927) [0.5, 0.5, 0.5], PeriodicSite: O (1.927, 1.927, 0.0) [0.5, 0.5, 0.0], PeriodicSite: O (1.927, 0.0, 1.927) [0.5, 0.0, 0.5], PeriodicSite: O (0.0, 1.927, 1.927) [0.0, 0.5, 0.5]]",57.22734779374253,"[Element Lu, Element V, Element O, Element O, Element O]",False,True,-2.76614353725,0.5639328577500002,0.0