,provider,id,Full_Formula,formula,space_group,a_lattice_param,b_lattice_param,c_lattice_param,aplha_degree,beta_degree,gamma_degree,pbc,sits,volume,species_at_sites,is_stable,is_magnetic,formation_energy,energy_above_hull,band_gap
598,mp,mp-1183772.cif,Co1 Mo1 O3,CoMoO3,Pm-3m,3.9836,3.9836,3.9836,90.0,90.0,90.0,"(True, True, True)","[PeriodicSite: Co (0.0, 0.0, 0.0) [0.0, 0.0, 0.0], PeriodicSite: Mo (1.992, 1.992, 1.992) [0.5, 0.5, 0.5], PeriodicSite: O (1.992, 1.992, 0.0) [0.5, 0.5, 0.0], PeriodicSite: O (1.992, 0.0, 1.992) [0.5, 0.0, 0.5], PeriodicSite: O (0.0, 1.992, 1.992) [0.0, 0.5, 0.5]]",63.216023109056,"[Element Co, Element Mo, Element O, Element O, Element O]",False,True,-1.0536209262499994,0.6738278065000056,0.0
599,mp,mp-1016845.cif,Zr1 Cd1 O3,ZrCdO3,Pm-3m,4.159472,4.159472,4.159472,90.0,90.0,90.0,"(True, True, True)","[PeriodicSite: Zr (2.08, 2.08, 2.08) [0.5, 0.5, 0.5], PeriodicSite: Cd (0.0, 0.0, 0.0) [0.0, 0.0, 0.0], PeriodicSite: O (2.08, 2.08, 0.0) [0.5, 0.5, 0.0], PeriodicSite: O (2.08, 0.0, 2.08) [0.5, 0.0, 0.5], PeriodicSite: O (0.0, 2.08, 2.08) [0.0, 0.5, 0.5]]",71.96388740867712,"[Element Zr, Element Cd, Element O, Element O, Element O]",False,False,-2.4899430652500003,0.3448755890000026,0.0
600,mp,mp-1206773.cif,Tm1 Ru3 C1,TmRu3C,Pm-3m,4.11425196,4.11425196,4.11425196,90.0,90.0,90.0,"(True, True, True)","[PeriodicSite: Tm (2.057, 2.057, 2.057) [0.5, 0.5, 0.5], PeriodicSite: Ru (2.057, 0.0, 0.0) [0.5, -0.0, -0.0], PeriodicSite: Ru (0.0, 2.057, 0.0) [-0.0, 0.5, -0.0], PeriodicSite: Ru (0.0, 0.0, 2.057) [-0.0, 0.0, 0.5], PeriodicSite: C (0.0, 0.0, 0.0) [0.0, 0.0, 0.0]]",69.64222759351004,"[Element Tm, Element Ru, Element Ru, Element Ru, Element C]",True,False,-0.261108702833333,0.0,0.0
601,mp,mp-1224374.cif,Ge1 N1 Cl3,GeNCl3,R3m,6.497648118527272,6.497648118527272,6.497648430287684,95.38146971839811,95.38146971839811,95.38145964557998,"(True, True, True)","[PeriodicSite: Ge (4.154, 0.0, 3.408) [0.5297, 0.5297, 0.5297], PeriodicSite: N (7.841, 0.0, 6.433) [0.9998, 0.9998, 0.9998], PeriodicSite: Cl (5.387, 1.771, 3.097) [0.4813, 0.8499, 0.4813], PeriodicSite: Cl (3.441, 0.0, 5.468) [0.4813, 0.4813, 0.8499], PeriodicSite: Cl (5.387, -1.771, 3.097) [0.8499, 0.4813, 0.4813]]",270.4539634147818,"[Element Ge, Element N, Element Cl, Element Cl, Element Cl]",False,True,0.17867930200000046,1.2728014838333346,0.42710000000000026
602,mp,mp-1183544.cif,Ca1 Y1 O3,CaYO3,Pm-3m,4.345547,4.345547,4.345547,90.0,90.0,90.0,"(True, True, True)","[PeriodicSite: Ca (0.0, 0.0, 0.0) [0.0, 0.0, 0.0], PeriodicSite: Y (2.173, 2.173, 2.173) [0.5, 0.5, 0.5], PeriodicSite: O (2.173, 2.173, 0.0) [0.5, 0.5, 0.0], PeriodicSite: O (2.173, 0.0, 2.173) [0.5, 0.0, 0.5], PeriodicSite: O (0.0, 2.173, 2.173) [0.0, 0.5, 0.5]]",82.06034800537797,"[Element Ca, Element Y, Element O, Element O, Element O]",False,True,-2.831406256583334,0.4779890828750002,0.0
603,mp,mp-1215535.cif,Yb1 Ga3 Cu1,YbGa3Cu,I-4m2,6.055433758951688,6.055433758951688,6.055433758951688,140.7901663224164,140.7901663224164,56.655486006673556,"(True, True, True)","[PeriodicSite: Yb (0.0, 0.0, 0.0) [-0.0, 0.0, -0.0], PeriodicSite: Ga (0.0, 0.0, 6.55) [0.6144, 0.6144, -0.0], PeriodicSite: Ga (0.0, 0.0, 4.111) [0.3856, 0.3856, 0.0], PeriodicSite: Ga (2.22e-16, 2.032, 2.665) [0.75, 0.25, 0.5], PeriodicSite: Cu (2.032, 2.22e-16, 2.665) [0.25, 0.75, 0.5]]",88.01761893721395,"[Element Yb, Element Ga, Element Ga, Element Ga, Element Cu]",False,False,-0.4099215924999996,0.0027958265263205995,0.0
604,mp,mp-1183914.cif,Cs1 Os1 O3,CsOsO3,Pm-3m,4.055253,4.055253,4.055253,90.0,90.0,90.0,"(True, True, True)","[PeriodicSite: Cs (0.0, 0.0, 0.0) [0.0, 0.0, 0.0], PeriodicSite: Os (2.028, 2.028, 2.028) [0.5, 0.5, 0.5], PeriodicSite: O (2.028, 2.028, 0.0) [0.5, 0.5, 0.0], PeriodicSite: O (2.028, 0.0, 2.028) [0.5, 0.0, 0.5], PeriodicSite: O (0.0, 2.028, 2.028) [0.0, 0.5, 0.5]]",66.6889474096607,"[Element Cs, Element Os, Element O, Element O, Element O]",False,False,-1.3237242288362068,0.2410426829999972,0.0
605,mp,mp-1101333.cif,Sr1 Nd1 O3,SrNdO3,Pm-3m,4.496464,4.496464,4.496464,90.0,90.0,90.0,"(True, True, True)","[PeriodicSite: Sr (0.0, 0.0, 0.0) [0.0, 0.0, 0.0], PeriodicSite: Nd (2.248, 2.248, 2.248) [0.5, 0.5, 0.5], PeriodicSite: O (0.0, 2.248, 2.248) [0.0, 0.5, 0.5], PeriodicSite: O (2.248, 0.0, 2.248) [0.5, 0.0, 0.5], PeriodicSite: O (2.248, 2.248, 0.0) [0.5, 0.5, 0.0]]",90.91035675028431,"[Element Sr, Element Nd, Element O, Element O, Element O]",False,True,-2.8105567380833336,0.3580356817499979,0.0
606,mp,mp-1184503.cif,Gd1 Rh1 O3,GdRhO3,Pm-3m,3.963804,3.963804,3.963804,90.0,90.0,90.0,"(True, True, True)","[PeriodicSite: Gd (0.0, 0.0, 0.0) [0.0, 0.0, 0.0], PeriodicSite: Rh (1.982, 1.982, 1.982) [0.5, 0.5, 0.5], PeriodicSite: O (1.982, 1.982, 0.0) [0.5, 0.5, 0.0], PeriodicSite: O (1.982, 0.0, 1.982) [0.5, 0.0, 0.5], PeriodicSite: O (0.0, 1.982, 1.982) [0.0, 0.5, 0.5]]",62.27826638278755,"[Element Gd, Element Rh, Element O, Element O, Element O]",False,True,-2.0723764092500003,0.4246224907499947,0.0
607,mp,mp-1068587.cif,Y1 Si3 Ir1,YSi3Ir,I4mm,5.714082086122427,5.714082086122427,5.714082086122427,137.13569197422402,137.13569197422402,62.229339366083664,"(True, True, True)","[PeriodicSite: Y (0.0, 0.0, 9.768) [0.9983, 0.9983, -0.0], PeriodicSite: Si (0.0, 0.0, 4.054) [0.4143, 0.4143, 0.0], PeriodicSite: Si (2.088, 2.22e-16, 2.59) [0.2647, 0.7647, 0.5], PeriodicSite: Si (2.22e-16, 2.088, 2.59) [0.7647, 0.2647, 0.5], PeriodicSite: Ir (0.0, 0.0, 6.379) [0.652, 0.652, 0.0]]",85.30545894701842,"[Element Y, Element Si, Element Si, Element Si, Element Ir]",True,False,-0.7852439053333328,0.0,0.0
608,mp,mp-1016884.cif,Ca1 Ge1 O3,CaGeO3,Pm-3m,3.783237,3.783237,3.783237,90.0,90.0,90.0,"(True, True, True)","[PeriodicSite: Ca (0.0, 0.0, 0.0) [0.0, 0.0, 0.0], PeriodicSite: Ge (1.892, 1.892, 1.892) [0.5, 0.5, 0.5], PeriodicSite: O (1.892, 1.892, 0.0) [0.5, 0.5, 0.0], PeriodicSite: O (1.892, 0.0, 1.892) [0.5, 0.0, 0.5], PeriodicSite: O (0.0, 1.892, 1.892) [0.0, 0.5, 0.5]]",54.1490255087543,"[Element Ca, Element Ge, Element O, Element O, Element O]",False,False,-2.5799733202499993,0.1707720013333276,0.5017000000000005
609,mp,mp-1147710.cif,Cs1 Pd1 Cl3,CsPdCl3,Pm-3m,5.063224,5.063224,5.063224,90.0,90.0,90.0,"(True, True, True)","[PeriodicSite: Cs (2.532, 2.532, 2.532) [0.5, 0.5, 0.5], PeriodicSite: Pd (0.0, 0.0, 0.0) [0.0, 0.0, 0.0], PeriodicSite: Cl (0.0, 0.0, 2.532) [0.0, 0.0, 0.5], PeriodicSite: Cl (2.532, 0.0, 0.0) [0.5, 0.0, 0.0], PeriodicSite: Cl (0.0, 2.532, 0.0) [0.0, 0.5, 0.0]]",129.8020118363025,"[Element Cs, Element Pd, Element Cl, Element Cl, Element Cl]",False,False,-1.4407921195862063,0.05220669350000051,0.0
610,mp,mp-1207093.cif,Lu1 Ru3 C1,LuRu3C,Pm-3m,4.1024656,4.10244827,4.10244827,90.0,90.0,90.0,"(True, True, True)","[PeriodicSite: Lu (2.051, 2.051, 2.051) [0.5, 0.5, 0.5], PeriodicSite: Ru (2.051, 0.0, 0.0) [0.5, 0.0, 0.0], PeriodicSite: Ru (0.0, 2.051, 0.0) [0.0, 0.5, 0.0], PeriodicSite: Ru (0.0, 0.0, 2.051) [0.0, -0.0, 0.5], PeriodicSite: C (0.0, 0.0, 0.0) [-0.0, 0.0, -0.0]]",69.04483166261245,"[Element Lu, Element Ru, Element Ru, Element Ru, Element C]",True,False,-0.2797864814999997,0.0,0.0
611,mp,mp-1187542.cif,Yb1 Pu1 O3,YbPuO3,Pm-3m,4.30619,4.30619,4.30619,90.0,90.0,90.0,"(True, True, True)","[PeriodicSite: Yb (0.0, 0.0, 0.0) [0.0, 0.0, 0.0], PeriodicSite: Pu (2.153, 2.153, 2.153) [0.5, 0.5, 0.5], PeriodicSite: O (2.153, 2.153, 0.0) [0.5, 0.5, 0.0], PeriodicSite: O (2.153, 0.0, 2.153) [0.5, 0.0, 0.5], PeriodicSite: O (0.0, 2.153, 2.153) [0.0, 0.5, 0.5]]",79.85085381486667,"[Element Yb, Element Pu, Element O, Element O, Element O]",False,True,-3.2303940752499996,0.41211357400000104,0.0
612,mp,mp-1186797.cif,Pu1 In1 O3,PuInO3,Pm-3m,4.148644,4.148644,4.148644,90.0,90.0,90.0,"(True, True, True)","[PeriodicSite: Pu (0.0, 0.0, 0.0) [0.0, 0.0, 0.0], PeriodicSite: In (2.074, 2.074, 2.074) [0.5, 0.5, 0.5], PeriodicSite: O (2.074, 2.074, 0.0) [0.5, 0.5, 0.0], PeriodicSite: O (2.074, 0.0, 2.074) [0.5, 0.0, 0.5], PeriodicSite: O (0.0, 2.074, 2.074) [0.0, 0.5, 0.5]]",71.40333675976989,"[Element Pu, Element In, Element O, Element O, Element O]",False,True,-2.19958488525,0.656725362666668,0.0
613,mp,mp-1226576.cif,Ce1 Ga3 Pt1,CeGa3Pt,I-4m2,4.225949,4.225949,6.156234462186362,69.92650509331938,69.92650509331938,90.0,"(True, True, True)","[PeriodicSite: Ce (0.0, 0.0, 0.0) [0.0, 0.0, 0.0], PeriodicSite: Ga (2.113, 2.113, 1.233) [0.3854, 0.3854, 0.2291], PeriodicSite: Ga (4.226, 4.226, 4.149) [0.6146, 0.6146, 0.7709], PeriodicSite: Ga (2.113, 4.226, 2.691) [0.25, 0.75, 0.5], PeriodicSite: Pt (4.226, 2.113, 2.691) [0.75, 0.25, 0.5]]",96.12181696412135,"[Element Ce, Element Ga, Element Ga, Element Ga, Element Pt]",False,True,-0.6850157454999994,0.014246234999999885,0.0
614,mp,mp-10139.cif,Sc3 Sn1 B1,Sc3SnB,Pm-3m,4.65396808,4.65396808,4.65396808,90.0,90.0,90.0,"(True, True, True)","[PeriodicSite: Sc (2.327, 0.0, 2.327) [0.5, 0.0, 0.5], PeriodicSite: Sc (0.0, 2.327, 2.327) [0.0, 0.5, 0.5], PeriodicSite: Sc (2.327, 2.327, 0.0) [0.5, 0.5, 0.0], PeriodicSite: Sn (0.0, 0.0, 0.0) [0.0, 0.0, 0.0], PeriodicSite: B (2.327, 2.327, 2.327) [0.5, 0.5, 0.5]]",100.80224414382151,"[Element Sc, Element Sc, Element Sc, Element Sn, Element B]",False,False,-0.6085225358333333,0.007753957500000297,0.0
615,mp,mp-1185693.cif,Mg1 B1 O3,MgBO3,Pm-3m,3.357238,3.357238,3.357238,90.0,90.0,90.0,"(True, True, True)","[PeriodicSite: Mg (0.0, 0.0, 0.0) [0.0, 0.0, 0.0], PeriodicSite: B (1.679, 1.679, 1.679) [0.5, 0.5, 0.5], PeriodicSite: O (1.679, 1.679, 0.0) [0.5, 0.5, 0.0], PeriodicSite: O (1.679, 0.0, 1.679) [0.5, 0.0, 0.5], PeriodicSite: O (0.0, 1.679, 1.679) [0.0, 0.5, 0.5]]",37.83958725006121,"[Element Mg, Element B, Element O, Element O, Element O]",False,False,-1.7067662910833328,1.0136834238750012,0.25429999999999975
616,mp,mp-1184948.cif,K1 Mn1 O3,KMnO3,Pm-3m,3.956178,3.956178,3.956178,90.0,90.0,90.0,"(True, True, True)","[PeriodicSite: K (0.0, 0.0, 0.0) [0.0, 0.0, 0.0], PeriodicSite: Mn (1.978, 1.978, 1.978) [0.5, 0.5, 0.5], PeriodicSite: O (1.978, 1.978, 0.0) [0.5, 0.5, 0.0], PeriodicSite: O (1.978, 0.0, 1.978) [0.5, 0.0, 0.5], PeriodicSite: O (0.0, 1.978, 1.978) [0.0, 0.5, 0.5]]",61.91950425785535,"[Element K, Element Mn, Element O, Element O, Element O]",False,True,-1.4824746874362078,0.2799126273409094,0.0
617,mp,mp-1183719.cif,Cr1 Rh1 O3,CrRhO3,Pm-3m,3.916935,3.916935,3.916935,90.0,90.0,90.0,"(True, True, True)","[PeriodicSite: Cr (0.0, 0.0, 0.0) [0.0, 0.0, 0.0], PeriodicSite: Rh (1.958, 1.958, 1.958) [0.5, 0.5, 0.5], PeriodicSite: O (1.958, 1.958, 0.0) [0.5, 0.5, 0.0], PeriodicSite: O (1.958, 0.0, 1.958) [0.5, 0.0, 0.5], PeriodicSite: O (0.0, 1.958, 1.958) [0.0, 0.5, 0.5]]",60.0951043992927,"[Element Cr, Element Rh, Element O, Element O, Element O]",False,True,-0.7601633632499997,0.9724235252499991,0.0
618,mp,mp-1186324.cif,Nd1 Ta1 O3,NdTaO3,Pm-3m,4.053073,4.053073,4.053073,90.0,90.0,90.0,"(True, True, True)","[PeriodicSite: Nd (0.0, 0.0, 0.0) [0.0, 0.0, 0.0], PeriodicSite: Ta (2.027, 2.027, 2.027) [0.5, 0.5, 0.5], PeriodicSite: O (2.027, 2.027, 0.0) [0.5, 0.5, 0.0], PeriodicSite: O (2.027, 0.0, 2.027) [0.5, 0.0, 0.5], PeriodicSite: O (0.0, 2.027, 2.027) [0.0, 0.5, 0.5]]",66.58145441296672,"[Element Nd, Element Ta, Element O, Element O, Element O]",False,False,-2.9775534707500007,0.4371269581999915,0.0
619,mp,mp-1017582.cif,La1 Pt3 C1,LaPt3C,Pm-3m,4.406794,4.406794,4.406794,90.0,90.0,90.0,"(True, True, True)","[PeriodicSite: La (0.0, 0.0, 0.0) [0.0, 0.0, 0.0], PeriodicSite: Pt (0.0, 2.203, 2.203) [0.0, 0.5, 0.5], PeriodicSite: Pt (2.203, 2.203, 0.0) [0.5, 0.5, 0.0], PeriodicSite: Pt (2.203, 0.0, 2.203) [0.5, 0.0, 0.5], PeriodicSite: C (2.203, 2.203, 2.203) [0.5, 0.5, 0.5]]",85.57920512495559,"[Element La, Element Pt, Element Pt, Element Pt, Element C]",False,False,-0.21793987650000018,0.5133005671666675,0.0
620,mp,mp-1184947.cif,K1 Co1 O3,KCoO3,Pm-3m,3.87397,3.87397,3.87397,90.0,90.0,90.0,"(True, True, True)","[PeriodicSite: K (0.0, 0.0, 0.0) [0.0, 0.0, 0.0], PeriodicSite: Co (1.937, 1.937, 1.937) [0.5, 0.5, 0.5], PeriodicSite: O (1.937, 1.937, 0.0) [0.5, 0.5, 0.0], PeriodicSite: O (1.937, 0.0, 1.937) [0.5, 0.0, 0.5], PeriodicSite: O (0.0, 1.937, 1.937) [0.0, 0.5, 0.5]]",58.13916092561977,"[Element K, Element Co, Element O, Element O, Element O]",False,True,-1.0315514008500002,0.2892614680000003,0.0
621,mp,mp-1187557.cif,Tm1 Sc1 O3,TmScO3,Pm-3m,4.001679,4.001679,4.001679,90.0,90.0,90.0,"(True, True, True)","[PeriodicSite: Tm (0.0, 0.0, 0.0) [0.0, 0.0, 0.0], PeriodicSite: Sc (2.001, 2.001, 2.001) [0.5, 0.5, 0.5], PeriodicSite: O (2.001, 2.001, 0.0) [0.5, 0.5, 0.0], PeriodicSite: O (2.001, 0.0, 2.001) [0.5, 0.0, 0.5], PeriodicSite: O (0.0, 2.001, 2.001) [0.0, 0.5, 0.5]]",64.08062583322518,"[Element Tm, Element Sc, Element O, Element O, Element O]",False,False,-3.4028443275833333,0.6286550321249997,2.5715999999999997
622,mp,mp-1070242.cif,Mn3 Cu1 N1,Mn3CuN,Pm-3m,4.510185,4.510185,4.510185,90.0,90.0,90.0,"(True, True, True)","[PeriodicSite: Mn (2.255, 2.255, 0.0) [0.5, 0.5, 0.0], PeriodicSite: Mn (2.255, 0.0, 2.255) [0.5, 0.0, 0.5], PeriodicSite: Mn (0.0, 2.255, 2.255) [0.0, 0.5, 0.5], PeriodicSite: Cu (2.255, 2.255, 2.255) [0.5, 0.5, 0.5], PeriodicSite: N (0.0, 0.0, 0.0) [0.0, 0.0, 0.0]]",91.74514021857057,"[Element Mn, Element Mn, Element Mn, Element Cu, Element N]",False,True,1.6596260462413794,1.9039674502499988,0.0
623,mp,mp-1187493.cif,Yb1 Sc1 O3,YbScO3,Pm-3m,4.048694,4.048694,4.048694,90.0,90.0,90.0,"(True, True, True)","[PeriodicSite: Yb (0.0, 0.0, 0.0) [0.0, 0.0, 0.0], PeriodicSite: Sc (2.024, 2.024, 2.024) [0.5, 0.5, 0.5], PeriodicSite: O (2.024, 2.024, 0.0) [0.5, 0.5, 0.0], PeriodicSite: O (2.024, 0.0, 2.024) [0.5, 0.0, 0.5], PeriodicSite: O (0.0, 2.024, 2.024) [0.0, 0.5, 0.5]]",66.36588072624986,"[Element Yb, Element Sc, Element O, Element O, Element O]",False,True,-3.1632227022499997,0.27366496399999996,0.0
624,mp,mp-1183289.cif,Ba1 Sc1 O3,BaScO3,Pm-3m,4.219697,4.219697,4.219697,90.0,90.0,90.0,"(True, True, True)","[PeriodicSite: Ba (0.0, 0.0, 0.0) [0.0, 0.0, 0.0], PeriodicSite: Sc (2.11, 2.11, 2.11) [0.5, 0.5, 0.5], PeriodicSite: O (2.11, 2.11, 0.0) [0.5, 0.5, 0.0], PeriodicSite: O (2.11, 0.0, 2.11) [0.5, 0.0, 0.5], PeriodicSite: O (0.0, 2.11, 2.11) [0.0, 0.5, 0.5]]",75.13526132667413,"[Element Ba, Element Sc, Element O, Element O, Element O]",False,True,-3.2078744082499995,0.026701069166676028,0.0
625,mp,mp-1016825.cif,Hf1 Mg1 O3,HfMgO3,Pm-3m,4.072456,4.072456,4.072456,90.0,90.0,90.0,"(True, True, True)","[PeriodicSite: Hf (2.036, 2.036, 2.036) [0.5, 0.5, 0.5], PeriodicSite: Mg (0.0, 0.0, 0.0) [0.0, 0.0, 0.0], PeriodicSite: O (2.036, 2.036, 0.0) [0.5, 0.5, 0.0], PeriodicSite: O (2.036, 0.0, 2.036) [0.5, 0.0, 0.5], PeriodicSite: O (0.0, 2.036, 2.036) [0.0, 0.5, 0.5]]",67.541266847953,"[Element Hf, Element Mg, Element O, Element O, Element O]",False,False,-3.0445071952499996,0.5895044664999993,1.2771999999999997
626,mp,mp-1186571.cif,Pm1 Eu1 O3,PmEuO3,Pm-3m,4.446997,4.446997,4.446997,90.0,90.0,90.0,"(True, True, True)","[PeriodicSite: Pm (2.223, 2.223, 2.223) [0.5, 0.5, 0.5], PeriodicSite: Eu (0.0, 0.0, 0.0) [0.0, 0.0, 0.0], PeriodicSite: O (2.223, 2.223, 0.0) [0.5, 0.5, 0.0], PeriodicSite: O (2.223, 0.0, 2.223) [0.5, 0.0, 0.5], PeriodicSite: O (0.0, 2.223, 2.223) [0.0, 0.5, 0.5]]",87.94284464083904,"[Element Pm, Element Eu, Element O, Element O, Element O]",False,True,-2.8493206187499993,0.6616967546250017,0.0
627,mp,mp-1080847.cif,Mg3 Sb1 N1,Mg3SbN,Pm-3m,4.34531858,4.34531858,4.34531858,90.0,90.0,90.0,"(True, True, True)","[PeriodicSite: Mg (0.0, 2.173, 2.173) [-0.0, 0.5, 0.5], PeriodicSite: Mg (2.173, 0.0, 2.173) [0.5, -0.0, 0.5], PeriodicSite: Mg (2.173, 2.173, 0.0) [0.5, 0.5, -0.0], PeriodicSite: Sb (0.0, 0.0, 0.0) [-0.0, 0.0, -0.0], PeriodicSite: N (2.173, 2.173, 2.173) [0.5, 0.5, 0.5]]",82.0474083873499,"[Element Mg, Element Mg, Element Mg, Element Sb, Element N]",True,False,-0.7244068570000003,0.0,1.6233999999999993
628,mp,mp-11733.cif,Lu3 In1 N1,Lu3InN,Pm-3m,4.64826427,4.64826427,4.64826427,90.0,90.0,90.0,"(True, True, True)","[PeriodicSite: Lu (2.324, 2.324, 0.0) [0.5, 0.5, 0.0], PeriodicSite: Lu (0.0, 2.324, 2.324) [0.0, 0.5, 0.5], PeriodicSite: Lu (2.324, 0.0, 2.324) [0.5, 0.0, 0.5], PeriodicSite: In (0.0, 0.0, 0.0) [-0.0, -0.0, -0.0], PeriodicSite: N (2.324, 2.324, 2.324) [0.5, 0.5, 0.5]]",100.43207455697862,"[Element Lu, Element Lu, Element Lu, Element In, Element N]",True,False,-1.0900753789999995,0.0,0.0
629,mp,mp-1185015.cif,K1 Np1 O3,KNpO3,P4/mmm,4.27003215,4.29310949,4.29310845,90.0,90.0,90.0,"(True, True, True)","[PeriodicSite: K (0.0, 0.0, 0.0) [0.0, 0.0, 0.0], PeriodicSite: Np (2.135, 2.147, 2.147) [0.5, 0.5, 0.5], PeriodicSite: O (2.135, 2.147, 0.0) [0.5, 0.5, -0.0], PeriodicSite: O (2.135, 0.0, 2.147) [0.5, 0.0, 0.5], PeriodicSite: O (0.0, 2.147, 2.147) [0.0, 0.5, 0.5]]",78.70004291254199,"[Element K, Element Np, Element O, Element O, Element O]",True,True,-3.1179980716,0.0,0.0
630,mp,mp-10120.cif,Nd1 B1 Pd3,NdBPd3,Pm-3m,4.383158,4.383158,4.383158,90.0,90.0,90.0,"(True, True, True)","[PeriodicSite: Nd (0.0, 0.0, 0.0) [0.0, 0.0, 0.0], PeriodicSite: B (2.192, 2.192, 2.192) [0.5, 0.5, 0.5], PeriodicSite: Pd (0.0, 2.192, 2.192) [0.0, 0.5, 0.5], PeriodicSite: Pd (2.192, 2.192, 0.0) [0.5, 0.5, 0.0], PeriodicSite: Pd (2.192, 0.0, 2.192) [0.5, 0.0, 0.5]]",84.20955608184157,"[Element Nd, Element B, Element Pd, Element Pd, Element Pd]",False,False,-0.5577394313333329,0.11133466173333151,0.0
631,mp,mp-1184073.cif,Cu1 Pd1 O3,CuPdO3,Pm-3m,3.793113,3.793113,3.793113,90.0,90.0,90.0,"(True, True, True)","[PeriodicSite: Cu (0.0, 0.0, 0.0) [0.0, 0.0, 0.0], PeriodicSite: Pd (1.897, 1.897, 1.897) [0.5, 0.5, 0.5], PeriodicSite: O (0.0, 0.0, 1.897) [0.0, 0.0, 0.5], PeriodicSite: O (0.0, 1.897, 0.0) [0.0, 0.5, 0.0], PeriodicSite: O (1.897, 0.0, 0.0) [0.5, 0.0, 0.0]]",54.57419554411089,"[Element Cu, Element Pd, Element O, Element O, Element O]",False,False,-0.09542237525000061,0.7189750189999939,0.0
632,mp,mp-1206774.cif,Mn3 As1 N1,Mn3AsN,Pm-3m,3.826193,3.826193,3.826193,90.0,90.0,90.0,"(True, True, True)","[PeriodicSite: Mn (0.0, 1.913, 0.0) [0.0, 0.5, 0.0], PeriodicSite: Mn (1.913, 0.0, 0.0) [0.5, 0.0, 0.0], PeriodicSite: Mn (0.0, 0.0, 1.913) [0.0, 0.0, 0.5], PeriodicSite: As (1.913, 1.913, 1.913) [0.5, 0.5, 0.5], PeriodicSite: N (0.0, 0.0, 0.0) [0.0, 0.0, 0.0]]",56.01451996535521,"[Element Mn, Element Mn, Element Mn, Element As, Element N]",False,True,-0.17994347875861932,0.17056343650000017,0.0
633,mp,mp-1097026.cif,La1 Ga1 O3,LaGaO3,Pm-3m,3.913456,3.913456,3.913456,90.0,90.0,90.0,"(True, True, True)","[PeriodicSite: La (1.957, 1.957, 1.957) [0.5, 0.5, 0.5], PeriodicSite: Ga (0.0, 0.0, 0.0) [0.0, 0.0, 0.0], PeriodicSite: O (0.0, 1.957, 0.0) [0.0, 0.5, 0.0], PeriodicSite: O (0.0, 0.0, 1.957) [0.0, 0.0, 0.5], PeriodicSite: O (1.957, 0.0, 0.0) [0.5, 0.0, 0.0]]",59.93511816444752,"[Element La, Element Ga, Element O, Element O, Element O]",False,False,-3.03491874175,0.09632406714285668,3.365900000000001
634,mp,mp-10712.cif,Sc1 Rh3 C1,ScRh3C,Pm-3m,4.07473446,4.07473446,4.07473446,90.0,90.0,90.0,"(True, True, True)","[PeriodicSite: Sc (0.0, 0.0, 0.0) [-0.0, 0.0, -0.0], PeriodicSite: Rh (0.0, 2.037, 2.037) [-0.0, 0.5, 0.5], PeriodicSite: Rh (2.037, 0.0, 2.037) [0.5, 0.0, 0.5], PeriodicSite: Rh (2.037, 2.037, 0.0) [0.5, 0.5, -0.0], PeriodicSite: C (2.037, 2.037, 2.037) [0.5, 0.5, 0.5]]",67.65469436399678,"[Element Sc, Element Rh, Element Rh, Element Rh, Element C]",True,False,-0.49481167849999963,0.0,0.0
635,mp,mp-1016841.cif,Hf1 Hg1 O3,HfHgO3,Pm-3m,4.122739,4.122739,4.122739,90.0,90.0,90.0,"(True, True, True)","[PeriodicSite: Hf (2.061, 2.061, 2.061) [0.5, 0.5, 0.5], PeriodicSite: Hg (0.0, 0.0, 0.0) [0.0, 0.0, 0.0], PeriodicSite: O (2.061, 2.061, 0.0) [0.5, 0.5, 0.0], PeriodicSite: O (2.061, 0.0, 2.061) [0.5, 0.0, 0.5], PeriodicSite: O (0.0, 2.061, 2.061) [0.0, 0.5, 0.5]]",70.07409939156388,"[Element Hf, Element Hg, Element O, Element O, Element O]",False,False,-2.3688201702499994,0.29905115799999926,0.0