,provider,id,Full_Formula,formula,space_group,a_lattice_param,b_lattice_param,c_lattice_param,aplha_degree,beta_degree,gamma_degree,pbc,sits,volume,species_at_sites,is_stable,is_magnetic,formation_energy,energy_above_hull,band_gap
1697,mp,mp-20999.cif,La3 In1 N1,La3InN,Pm-3m,5.13785256,5.13783273,5.13784525,90.0,90.0,90.0,"(True, True, True)","[PeriodicSite: La (2.569, 2.569, 0.0) [0.5, 0.5, 0.0], PeriodicSite: La (0.0, 2.569, 2.569) [-0.0, 0.5, 0.5], PeriodicSite: La (2.569, 0.0, 2.569) [0.5, -0.0, 0.5], PeriodicSite: In (0.0, 0.0, 0.0) [-0.0, -0.0, 0.0], PeriodicSite: N (2.569, 2.569, 2.569) [0.5, 0.5, 0.5]]",135.62589515374242,"[Element La, Element La, Element La, Element In, Element N]",True,False,-0.9479193840000001,0.0,0.0
1698,mp,mp-984356.cif,Cs1 Ir1 O3,CsIrO3,Pm-3m,4.093677,4.093677,4.093677,90.0,90.0,90.0,"(True, True, True)","[PeriodicSite: Cs (0.0, 0.0, 0.0) [0.0, 0.0, 0.0], PeriodicSite: Ir (2.047, 2.047, 2.047) [0.5, 0.5, 0.5], PeriodicSite: O (2.047, 2.047, 0.0) [0.5, 0.5, 0.0], PeriodicSite: O (2.047, 0.0, 2.047) [0.5, 0.0, 0.5], PeriodicSite: O (0.0, 2.047, 2.047) [0.0, 0.5, 0.5]]",68.60262261525105,"[Element Cs, Element Ir, Element O, Element O, Element O]",False,True,-1.051698792836207,0.21078614583333177,0.0
1699,mp,mp-623448.cif,Nd3 In1 N1,Nd3InN,Pm-3m,6.111999,6.111999,6.111999,90.0,90.0,90.0,"(True, True, True)","[PeriodicSite: Nd (3.056, 3.056, 0.0) [0.5, 0.5, 0.0], PeriodicSite: Nd (3.056, 0.0, 3.056) [0.5, 0.0, 0.5], PeriodicSite: Nd (0.0, 3.056, 3.056) [0.0, 0.5, 0.5], PeriodicSite: In (3.056, 3.056, 3.056) [0.5, 0.5, 0.5], PeriodicSite: N (0.0, 0.0, 0.0) [0.0, 0.0, 0.0]]",228.32308485838632,"[Element Nd, Element Nd, Element Nd, Element In, Element N]",False,True,1.3020390544999998,2.2345819519999996,0.0
1700,mp,mp-864911.cif,Ac1 Mn1 O3,AcMnO3,Pm-3m,3.96302168,3.96302168,3.96302168,90.0,90.0,90.0,"(True, True, True)","[PeriodicSite: Ac (0.0, 0.0, 0.0) [0.0, 0.0, 0.0], PeriodicSite: Mn (1.982, 1.982, 1.982) [0.5, 0.5, 0.5], PeriodicSite: O (1.982, 1.982, 0.0) [0.5, 0.5, 0.0], PeriodicSite: O (1.982, 0.0, 1.982) [0.5, 0.0, 0.5], PeriodicSite: O (0.0, 1.982, 1.982) [0.0, 0.5, 0.5]]",62.241398829787876,"[Element Ac, Element Mn, Element O, Element O, Element O]",True,True,-2.9743933993362064,0.0,0.0
1701,mp,mp-998412.cif,K1 Ge1 Br3,KGeBr3,Cm,5.605409015064021,5.605409015064021,5.592046520467797,89.03163450397945,89.03163450397945,89.23977011620225,"(True, True, True)","[PeriodicSite: K (0.0, 0.01482, 0.003326) [0.001847, 0.001847, 0.000595], PeriodicSite: Ge (0.0, 4.233, 2.982) [0.5216, 0.5216, 0.5334], PeriodicSite: Br (1.904, 6.002, 2.872) [0.9854, 0.5019, 0.5136], PeriodicSite: Br (0.0, 3.944, 0.0044) [0.4943, 0.4943, 0.000787], PeriodicSite: Br (-1.904, 6.002, 2.872) [0.5019, 0.9854, 0.5136]]",175.64051665487327,"[Element K, Element Ge, Element Br, Element Br, Element Br]",False,False,-1.4165059315999997,0.025231167999999915,0.9083000000000001
1702,mp,mp-980537.cif,Rb1 Yb1 O3,RbYbO3,Pm-3m,4.541931,4.541931,4.541931,90.0,90.0,90.0,"(True, True, True)","[PeriodicSite: Rb (0.0, 0.0, 0.0) [0.0, 0.0, 0.0], PeriodicSite: Yb (2.271, 2.271, 2.271) [0.5, 0.5, 0.5], PeriodicSite: O (2.271, 2.271, 0.0) [0.5, 0.5, 0.0], PeriodicSite: O (2.271, 0.0, 2.271) [0.5, 0.0, 0.5], PeriodicSite: O (0.0, 2.271, 2.271) [0.0, 0.5, 0.5]]",93.69611779172504,"[Element Rb, Element Yb, Element O, Element O, Element O]",False,True,-1.6173354467500005,0.41866930599999996,0.0
1703,mp,mp-980058.cif,Rb1 Tb1 O3,RbTbO3,Pm-3m,4.535039,4.535039,4.535039,90.0,90.0,90.0,"(True, True, True)","[PeriodicSite: Rb (0.0, 0.0, 0.0) [0.0, 0.0, 0.0], PeriodicSite: Tb (2.268, 2.268, 2.268) [0.5, 0.5, 0.5], PeriodicSite: O (2.268, 2.268, 0.0) [0.5, 0.5, 0.0], PeriodicSite: O (2.268, 0.0, 2.268) [0.5, 0.0, 0.5], PeriodicSite: O (0.0, 2.268, 2.268) [0.0, 0.5, 0.5]]",93.27023664401828,"[Element Rb, Element Tb, Element O, Element O, Element O]",False,True,-2.2725872307499997,0.25824298787500055,0.0
1704,mp,mp-977455.cif,Pa1 Ag1 O3,PaAgO3,Pm-3m,4.3149707,4.3149707,4.3149707,90.0,90.0,90.0,"(True, True, True)","[PeriodicSite: Pa (2.157, 2.157, 2.157) [0.5, 0.5, 0.5], PeriodicSite: Ag (0.0, 0.0, 0.0) [-0.0, -0.0, -0.0], PeriodicSite: O (2.157, 2.157, 0.0) [0.5, 0.5, -0.0], PeriodicSite: O (2.157, 0.0, 2.157) [0.5, -0.0, 0.5], PeriodicSite: O (0.0, 2.157, 2.157) [-0.0, 0.5, 0.5]]",80.34031925623562,"[Element Pa, Element Ag, Element O, Element O, Element O]",True,False,-2.8391614665833345,0.0,0.915
1705,mp,mp-27718.cif,Cs1 Hg1 Br3,CsHgBr3,Pm-3m,5.695005,5.695005,5.695005,90.0,90.0,90.0,"(True, True, True)","[PeriodicSite: Cs (0.0, 0.0, 0.0) [0.0, 0.0, 0.0], PeriodicSite: Hg (2.848, 2.848, 2.848) [0.5, 0.5, 0.5], PeriodicSite: Br (2.848, 0.0, 2.848) [0.5, 0.0, 0.5], PeriodicSite: Br (2.848, 2.848, 0.0) [0.5, 0.5, 0.0], PeriodicSite: Br (0.0, 2.848, 2.848) [0.0, 0.5, 0.5]]",184.7065638708021,"[Element Cs, Element Hg, Element Br, Element Br, Element Br]",False,False,-1.3610456305862066,0.04152278000000109,0.0
1706,mp,mp-20990.cif,Pr3 In1 N1,Pr3InN,Pm-3m,5.07883424,5.07883424,5.07883424,90.0,90.0,90.0,"(True, True, True)","[PeriodicSite: Pr (2.539, 2.539, 0.0) [0.5, 0.5, 0.0], PeriodicSite: Pr (0.0, 2.539, 2.539) [0.0, 0.5, 0.5], PeriodicSite: Pr (2.539, 0.0, 2.539) [0.5, 0.0, 0.5], PeriodicSite: In (0.0, 0.0, 0.0) [0.0, 0.0, 0.0], PeriodicSite: N (2.539, 2.539, 2.539) [0.5, 0.5, 0.5]]",131.00628050292852,"[Element Pr, Element Pr, Element Pr, Element In, Element N]",True,False,-0.8986989299999998,0.0,0.0
1707,mp,mp-862832.cif,Pa1 Tl1 O3,PaTlO3,Pm-3m,4.37641728,4.37641728,4.37641728,90.0,90.0,90.0,"(True, True, True)","[PeriodicSite: Pa (2.188, 2.188, 2.188) [0.5, 0.5, 0.5], PeriodicSite: Tl (0.0, 0.0, 0.0) [0.0, 0.0, 0.0], PeriodicSite: O (2.188, 2.188, 0.0) [0.5, 0.5, 0.0], PeriodicSite: O (2.188, 0.0, 2.188) [0.5, 0.0, 0.5], PeriodicSite: O (0.0, 2.188, 2.188) [0.0, 0.5, 0.5]]",83.82164361680597,"[Element Pa, Element Tl, Element O, Element O, Element O]",True,False,-3.1757364979166667,0.0,2.6427000000000005
1708,mp,mp-21035.cif,Sc3 Pb1 C1,Sc3PbC,Pm-3m,4.55407219,4.55407219,4.55407219,90.0,90.0,90.0,"(True, True, True)","[PeriodicSite: Sc (0.0, 2.277, 2.277) [0.0, 0.5, 0.5], PeriodicSite: Sc (2.277, 2.277, 0.0) [0.5, 0.5, 0.0], PeriodicSite: Sc (2.277, 0.0, 2.277) [0.5, 0.0, 0.5], PeriodicSite: Pb (0.0, 0.0, 0.0) [-0.0, -0.0, -0.0], PeriodicSite: C (2.277, 2.277, 2.277) [0.5, 0.5, 0.5]]",94.44951496223662,"[Element Sc, Element Sc, Element Sc, Element Pb, Element C]",True,False,-0.6770697145,0.0,0.0
1709,mp,mp-546200.cif,Tl1 I1 O3,TlIO3,Pm-3m,4.249667,4.249667,4.249667,90.0,90.0,90.0,"(True, True, True)","[PeriodicSite: Tl (0.0, 0.0, 0.0) [0.0, 0.0, 0.0], PeriodicSite: I (2.125, 2.125, 2.125) [0.5, 0.5, 0.5], PeriodicSite: O (2.125, 0.0, 2.125) [0.5, 0.0, 0.5], PeriodicSite: O (2.125, 2.125, 0.0) [0.5, 0.5, 0.0], PeriodicSite: O (0.0, 2.125, 2.125) [0.0, 0.5, 0.5]]",76.7475819762978,"[Element Tl, Element I, Element O, Element O, Element O]",False,False,-0.7375529039166672,0.24399485399999943,0.0
1710,mp,mp-19025.cif,La1 Mn1 O3,LaMnO3,Pm-3m,3.94437,3.94437,3.94437,90.0,90.0,90.0,"(True, True, True)","[PeriodicSite: La (0.0, 0.0, 0.0) [0.0, 0.0, 0.0], PeriodicSite: Mn (1.972, 1.972, 1.972) [0.5, 0.5, 0.5], PeriodicSite: O (0.0, 1.972, 1.972) [0.0, 0.5, 0.5], PeriodicSite: O (1.972, 1.972, 0.0) [0.5, 0.5, 0.0], PeriodicSite: O (1.972, 0.0, 1.972) [0.5, 0.0, 0.5]]",61.36672420481146,"[Element La, Element Mn, Element O, Element O, Element O]",False,True,-2.9296255758362064,0.20106425400456374,0.0
1711,mp,mp-568727.cif,Er1 Rh3 C1,ErRh3C,Pm-3m,4.13379555,4.13379555,4.13379555,90.0,90.0,90.0,"(True, True, True)","[PeriodicSite: Er (0.0, 0.0, 0.0) [-0.0, 0.0, -0.0], PeriodicSite: Rh (0.0, 2.067, 2.067) [-0.0, 0.5, 0.5], PeriodicSite: Rh (2.067, 2.067, 0.0) [0.5, 0.5, -0.0], PeriodicSite: Rh (2.067, 0.0, 2.067) [0.5, -0.0, 0.5], PeriodicSite: C (2.067, 2.067, 2.067) [0.5, 0.5, 0.5]]",70.63939649788001,"[Element Er, Element Rh, Element Rh, Element Rh, Element C]",True,False,-0.5276552734999995,0.0,0.0
1712,mp,mp-1247483.cif,Ni3 Sb1 N1,Ni3SbN,P4/mmm,3.918868,3.9313178398400965,3.9323990060714844,90.00578059761212,90.0,90.0,"(True, True, True)","[PeriodicSite: Ni (-1.39, -1.39, 0.0) [0.0, 0.5, 0.0], PeriodicSite: Ni (-1.39, 1.39, 0.0) [0.0, 0.0, 0.5], PeriodicSite: Ni (-2.78, 0.000382, -1.959) [0.5, 0.5, 0.5], PeriodicSite: Sb (0.0, 0.0, -1.959) [0.5, 0.0, 0.0], PeriodicSite: N (-2.78, 0.000382, 0.0) [0.0, 0.5, 0.5]]",60.58378016040618,"[Element Ni, Element Ni, Element Ni, Element Sb, Element N]",False,False,-0.0543589389999994,0.124102878333332,0.0
1713,mp,mp-973877.cif,Pa1 B1 O3,PaBO3,Pm-3m,3.619435,3.619435,3.619435,90.0,90.0,90.0,"(True, True, True)","[PeriodicSite: Pa (1.81, 1.81, 1.81) [0.5, 0.5, 0.5], PeriodicSite: B (0.0, 0.0, 0.0) [0.0, 0.0, 0.0], PeriodicSite: O (0.0, 0.0, 1.81) [0.0, 0.0, 0.5], PeriodicSite: O (0.0, 1.81, 0.0) [0.0, 0.5, 0.0], PeriodicSite: O (1.81, 0.0, 0.0) [0.5, 0.0, 0.0]]",47.41571950860314,"[Element Pa, Element B, Element O, Element O, Element O]",False,True,-2.238164525083333,1.1269523429791661,0.0
1714,mp,mp-510624.cif,Sr1 Fe1 O3,SrFeO3,Pm-3m,3.82881691,3.82881275,3.82881172,90.0,90.0,90.0,"(True, True, True)","[PeriodicSite: Sr (1.914, 1.914, 1.914) [0.5, 0.5, 0.5], PeriodicSite: Fe (0.0, 0.0, 0.0) [-0.0, 0.0, 0.0], PeriodicSite: O (1.914, 0.0, 0.0) [0.5, 0.0, 0.0], PeriodicSite: O (0.0, 1.914, 0.0) [-0.0, 0.5, 0.0], PeriodicSite: O (0.0, 0.0, 1.914) [-0.0, 0.0, 0.5]]",56.12970212480508,"[Element Sr, Element Fe, Element O, Element O, Element O]",True,True,-2.2243332005833336,0.0,0.0
1715,mp,mp-3020.cif,Ba1 Nb1 O3,BaNbO3,Pm-3m,4.13357283,4.13357283,4.13357283,90.0,90.0,90.0,"(True, True, True)","[PeriodicSite: Ba (0.0, 0.0, 0.0) [-0.0, 0.0, 0.0], PeriodicSite: Nb (2.067, 2.067, 2.067) [0.5, 0.5, 0.5], PeriodicSite: O (2.067, 0.0, 2.067) [0.5, 0.0, 0.5], PeriodicSite: O (2.067, 2.067, 0.0) [0.5, 0.5, 0.0], PeriodicSite: O (0.0, 2.067, 2.067) [0.0, 0.5, 0.5]]",70.62797941745364,"[Element Ba, Element Nb, Element O, Element O, Element O]",True,False,-3.17951793725,0.0,0.0
1716,mp,mp-862870.cif,Li1 Tc1 O3,LiTcO3,Pm-3m,3.853851,3.853851,3.853851,90.0,90.0,90.0,"(True, True, True)","[PeriodicSite: Li (0.0, 0.0, 0.0) [0.0, 0.0, 0.0], PeriodicSite: Tc (1.927, 1.927, 1.927) [0.5, 0.5, 0.5], PeriodicSite: O (1.927, 1.927, 0.0) [0.5, 0.5, 0.0], PeriodicSite: O (1.927, 0.0, 1.927) [0.5, 0.0, 0.5], PeriodicSite: O (0.0, 1.927, 1.927) [0.0, 0.5, 0.5]]",57.23804068843266,"[Element Li, Element Tc, Element O, Element O, Element O]",False,False,-1.912231474916667,0.06527020858332744,0.0
1717,mp,mp-21043.cif,Rb1 Pb1 F3,RbPbF3,Pm-3m,4.861716,4.861716,4.861716,90.0,90.0,90.0,"(True, True, True)","[PeriodicSite: Rb (0.0, 0.0, 0.0) [0.0, 0.0, 0.0], PeriodicSite: Pb (2.431, 2.431, 2.431) [0.5, 0.5, 0.5], PeriodicSite: F (0.0, 2.431, 2.431) [0.0, 0.5, 0.5], PeriodicSite: F (2.431, 0.0, 2.431) [0.5, 0.0, 0.5], PeriodicSite: F (2.431, 2.431, 0.0) [0.5, 0.5, 0.0]]",114.91289263893754,"[Element Rb, Element Pb, Element F, Element F, Element F]",False,False,-2.746318915,0.034088991000001734,3.0444999999999998
1718,mp,mp-21022.cif,Nd3 In1 N1,Nd3InN,Pm-3m,5.02826716,5.02826405,5.02826405,90.0,90.0,90.0,"(True, True, True)","[PeriodicSite: Nd (2.514, 2.514, 0.0) [0.5, 0.5, 0.0], PeriodicSite: Nd (0.0, 2.514, 2.514) [-0.0, 0.5, 0.5], PeriodicSite: Nd (2.514, 0.0, 2.514) [0.5, 0.0, 0.5], PeriodicSite: In (0.0, 0.0, 0.0) [0.0, -0.0, -0.0], PeriodicSite: N (2.514, 2.514, 2.514) [0.5, 0.5, 0.5]]",127.13188780825314,"[Element Nd, Element Nd, Element Nd, Element In, Element N]",True,False,-0.9325428975000001,0.0,0.0
1719,mp,mp-8401.cif,Cs1 Mg1 F3,CsMgF3,Pm-3m,4.252307,4.252307,4.252307,90.0,90.0,90.0,"(True, True, True)","[PeriodicSite: Cs (0.0, 0.0, 0.0) [0.0, 0.0, 0.0], PeriodicSite: Mg (2.126, 2.126, 2.126) [0.5, 0.5, 0.5], PeriodicSite: F (0.0, 2.126, 2.126) [0.0, 0.5, 0.5], PeriodicSite: F (2.126, 0.0, 2.126) [0.5, 0.0, 0.5], PeriodicSite: F (2.126, 2.126, 0.0) [0.5, 0.5, 0.0]]",76.89070343345318,"[Element Cs, Element Mg, Element F, Element F, Element F]",False,False,-3.426002267086207,0.057630618750001084,6.7028
1720,mp,mp-973269.cif,Sb1 Te1 O3,SbTeO3,Pm-3m,4.17312,4.17312,4.17312,90.0,90.0,90.0,"(True, True, True)","[PeriodicSite: Sb (0.0, 0.0, 0.0) [0.0, 0.0, 0.0], PeriodicSite: Te (2.087, 2.087, 2.087) [0.5, 0.5, 0.5], PeriodicSite: O (0.0, 0.0, 2.087) [0.0, 0.0, 0.5], PeriodicSite: O (0.0, 2.087, 0.0) [0.0, 0.5, 0.0], PeriodicSite: O (2.087, 0.0, 0.0) [0.5, 0.0, 0.0]]",72.67459491171533,"[Element Sb, Element Te, Element O, Element O, Element O]",False,False,-0.8545822425833329,0.7018539886250004,0.0
1721,mp,mp-998432.cif,Ca1 Tc1 O3,CaTcO3,P1,3.9271829183352285,3.9387090034474497,3.948519326593451,89.75916015442039,89.87527470717296,89.96474487840536,"(True, True, True)","[PeriodicSite: Ca (0.01118, 0.006503, 0.01947) [0.002847, 0.001653, 0.004918], PeriodicSite: Tc (1.964, 2.02, 1.995) [0.4997, 0.5132, 0.5018], PeriodicSite: O (3.926, 2.034, 2.004) [0.9995, 0.5166, 0.503], PeriodicSite: O (1.954, 0.05315, 1.974) [0.4977, 0.01371, 0.4987], PeriodicSite: O (1.966, 2.028, 0.02023) [0.5002, 0.5148, 0.001604]]",61.075122732895636,"[Element Ca, Element Tc, Element O, Element O, Element O]",False,False,-2.3668397482500003,0.10903994649999937,0.0
1722,mp,mp-23737.cif,K1 Mg1 H3,KMgH3,Pm-3m,3.988098,3.988098,3.988098,90.0,90.0,90.0,"(True, True, True)","[PeriodicSite: K (0.0, 0.0, 0.0) [0.0, 0.0, 0.0], PeriodicSite: Mg (1.994, 1.994, 1.994) [0.5, 0.5, 0.5], PeriodicSite: H (1.994, 0.0, 1.994) [0.5, 0.0, 0.5], PeriodicSite: H (1.994, 1.994, 0.0) [0.5, 0.5, 0.0], PeriodicSite: H (0.0, 1.994, 1.994) [0.0, 0.5, 0.5]]",63.4304022052392,"[Element K, Element Mg, Element H, Element H, Element H]",True,False,-0.35735251160000026,0.0,2.5126
1723,mp,mp-625521.cif,H3 Br1 O1,H3BrO,Cm,4.276298452545379,4.276298452545379,4.429754639261299,71.60769411141807,71.60769411141807,70.76810895955511,"(True, True, True)","[PeriodicSite: H (0.0, 5.384, 1.44) [0.6855, 0.6855, 0.3524], PeriodicSite: H (-0.8289, 4.824, 2.778) [0.3573, 0.6921, 0.68], PeriodicSite: H (0.8289, 4.824, 2.778) [0.6921, 0.3573, 0.68], PeriodicSite: Br (0.0, 8.556, 4.038) [0.9839, 0.9839, 0.9887], PeriodicSite: O (0.0, 4.683, 2.191) [0.5398, 0.5398, 0.5363]]",70.52512333192955,"[Element H, Element H, Element H, Element Br, Element O]",False,False,-1.04801332675,0.0003329719999998204,4.5929
1724,mp,mp-568544.cif,Cs1 Cd1 Cl3,CsCdCl3,Pm-3m,5.26440167,5.26440167,5.26440167,90.0,90.0,90.0,"(True, True, True)","[PeriodicSite: Cs (0.0, 0.0, 0.0) [0.0, 0.0, 0.0], PeriodicSite: Cd (2.632, 2.632, 2.632) [0.5, 0.5, 0.5], PeriodicSite: Cl (0.0, 2.632, 2.632) [0.0, 0.5, 0.5], PeriodicSite: Cl (2.632, 2.632, 0.0) [0.5, 0.5, 0.0], PeriodicSite: Cl (2.632, 0.0, 2.632) [0.5, 0.0, 0.5]]",145.8972327527039,"[Element Cs, Element Cd, Element Cl, Element Cl, Element Cl]",False,False,-1.8336132055862069,0.007472117666666556,1.7462
1725,mp,mp-2225290.cif,Mg1 Cr1 O3,MgCrO3,Pm,5.262659205060214,5.244500241935832,3.054912,90.0,90.0,116.01382068155107,"(True, True, True)","[PeriodicSite: Mg (-0.612, 2.922, 1.527) [0.1766, 0.6242, 0.5], PeriodicSite: Cr (1.939, 4.685, 0.0) [0.828, 0.9786, 0.0], PeriodicSite: O (2.92, 4.194, 1.527) [0.9621, 0.867, 0.5], PeriodicSite: O (0.4217, 3.815, 0.0) [0.4583, 0.8058, 0.0], PeriodicSite: O (4.248, 1.801, 0.0) [0.9717, 0.3495, 0.0]]",75.77346345087477,"[Element Mg, Element Cr, Element O, Element O, Element O]",False,True,-2.3412869912500014,0.17164861600000147,0.9534
1726,mp,mp-560976.cif,K1 Ni1 F3,KNiF3,Pm-3m,4.00809624,4.00805847,4.00805988,90.0,90.0,90.0,"(True, True, True)","[PeriodicSite: K (0.0, 0.0, 0.0) [0.0, -0.0, -0.0], PeriodicSite: Ni (2.004, 2.004, 2.004) [0.5, 0.5, 0.5], PeriodicSite: F (0.0, 2.004, 2.004) [0.0, 0.5, 0.5], PeriodicSite: F (2.004, 0.0, 2.004) [0.5, -0.0, 0.5], PeriodicSite: F (2.004, 2.004, 0.0) [0.5, 0.5, -0.0]]",64.38821575917798,"[Element K, Element Ni, Element F, Element F, Element F]",True,True,-2.6417304601,0.0,0.0
1727,mp,mp-23729.cif,Na1 Be1 H3,NaBeH3,Pm-3m,3.342892,3.342892,3.342892,90.0,90.0,90.0,"(True, True, True)","[PeriodicSite: Na (1.671, 1.671, 1.671) [0.5, 0.5, 0.5], PeriodicSite: Be (0.0, 0.0, 0.0) [0.0, 0.0, 0.0], PeriodicSite: H (1.671, 0.0, 0.0) [0.5, 0.0, 0.0], PeriodicSite: H (0.0, 1.671, 0.0) [0.0, 0.5, 0.0], PeriodicSite: H (0.0, 0.0, 1.671) [0.0, 0.0, 0.5]]",37.356573813701,"[Element Na, Element Be, Element H, Element H, Element H]",False,False,-0.15247806731034502,0.1260780568333355,0.9148000000000001
1728,mp,mp-20796.cif,In1 Pt3 C1,InPt3C,Pm-3m,4.258586,4.258586,4.258586,90.0,90.0,90.0,"(True, True, True)","[PeriodicSite: In (0.0, 0.0, 0.0) [0.0, 0.0, 0.0], PeriodicSite: Pt (2.129, 0.0, 2.129) [0.5, 0.0, 0.5], PeriodicSite: Pt (2.129, 2.129, 0.0) [0.5, 0.5, 0.0], PeriodicSite: Pt (0.0, 2.129, 2.129) [0.0, 0.5, 0.5], PeriodicSite: C (2.129, 2.129, 2.129) [0.5, 0.5, 0.5]]",77.23181943025375,"[Element In, Element Pt, Element Pt, Element Pt, Element C]",False,False,0.25567019450000006,0.5390159524999998,0.0
1729,mp,mp-7006.cif,Sr1 Nb1 O3,SrNbO3,Pm-3m,4.06969111,4.06969111,4.06968705,90.0,90.0,90.0,"(True, True, True)","[PeriodicSite: Sr (2.035, 2.035, 2.035) [0.5, 0.5, 0.5], PeriodicSite: Nb (0.0, 0.0, 0.0) [0.0, 0.0, -0.0], PeriodicSite: O (0.0, 2.035, 0.0) [-0.0, 0.5, 0.0], PeriodicSite: O (0.0, 0.0, 2.035) [0.0, -0.0, 0.5], PeriodicSite: O (2.035, 0.0, 0.0) [0.5, -0.0, 0.0]]",67.40372672579457,"[Element Sr, Element Nb, Element O, Element O, Element O]",False,False,-3.1761196165833327,0.013055290499993433,0.0
1730,mp,mp-624739.cif,Sc1 Ir3 C1,ScIr3C,Pm-3m,4.685136,4.685136,4.685136,90.0,90.0,90.0,"(True, True, True)","[PeriodicSite: Sc (0.0, 0.0, 0.0) [0.0, 0.0, 0.0], PeriodicSite: Ir (2.343, 0.0, 0.0) [0.5, 0.0, 0.0], PeriodicSite: Ir (0.0, 2.343, 0.0) [0.0, 0.5, 0.0], PeriodicSite: Ir (0.0, 0.0, 2.343) [0.0, 0.0, 0.5], PeriodicSite: C (2.343, 2.343, 2.343) [0.5, 0.5, 0.5]]",102.84107466876378,"[Element Sc, Element Ir, Element Ir, Element Ir, Element C]",False,False,2.9189886915,3.4158633784999974,0.0
1731,mp,mp-984722.cif,Be1 Ga1 O3,BeGaO3,Pm-3m,3.462523,3.462523,3.462523,90.0,90.0,90.0,"(True, True, True)","[PeriodicSite: Be (1.731, 1.731, 1.731) [0.5, 0.5, 0.5], PeriodicSite: Ga (0.0, 0.0, 0.0) [0.0, 0.0, 0.0], PeriodicSite: O (1.731, 1.731, 0.0) [0.5, 0.5, 0.0], PeriodicSite: O (1.731, 0.0, 1.731) [0.5, 0.0, 0.5], PeriodicSite: O (0.0, 1.731, 1.731) [0.0, 0.5, 0.5]]",41.51241513065125,"[Element Be, Element Ga, Element O, Element O, Element O]",False,False,-1.29304217775,1.0846296827916664,0.0
1732,mp,mp-3105.cif,Lu1 B1 Pd3,LuBPd3,Pm-3m,4.286119,4.286119,4.286119,90.0,90.0,90.0,"(True, True, True)","[PeriodicSite: Lu (0.0, 0.0, 0.0) [0.0, 0.0, 0.0], PeriodicSite: B (2.143, 2.143, 2.143) [0.5, 0.5, 0.5], PeriodicSite: Pd (0.0, 2.143, 2.143) [0.0, 0.5, 0.5], PeriodicSite: Pd (2.143, 2.143, 0.0) [0.5, 0.5, 0.0], PeriodicSite: Pd (2.143, 0.0, 2.143) [0.5, 0.0, 0.5]]",78.73950385525583,"[Element Lu, Element B, Element Pd, Element Pd, Element Pd]",False,False,-0.6453409198333333,0.11490506962962943,0.0
1733,mp,mp-984553.cif,B1 Os1 O3,BOsO3,Pm-3m,3.407419,3.407419,3.407419,90.0,90.0,90.0,"(True, True, True)","[PeriodicSite: B (0.0, 0.0, 0.0) [0.0, 0.0, 0.0], PeriodicSite: Os (1.704, 1.704, 1.704) [0.5, 0.5, 0.5], PeriodicSite: O (0.0, 0.0, 1.704) [0.0, 0.0, 0.5], PeriodicSite: O (0.0, 1.704, 0.0) [0.0, 0.5, 0.0], PeriodicSite: O (1.704, 0.0, 0.0) [0.5, 0.0, 0.0]]",39.56185275227554,"[Element B, Element Os, Element O, Element O, Element O]",False,False,-0.22519899708333355,1.7791229256666616,0.0