,provider,id,Full_Formula,formula,space_group,a_lattice_param,b_lattice_param,c_lattice_param,aplha_degree,beta_degree,gamma_degree,pbc,sits,volume,species_at_sites,is_stable,is_magnetic,formation_energy,energy_above_hull,band_gap
1369,mp,mp-1210575.cif,Mg1 Ag1 F3,MgAgF3,Pm-3m,4.399469,4.399469,4.399469,90.0,90.0,90.0,"(True, True, True)","[PeriodicSite: Mg (2.2, 2.2, 2.2) [0.5, 0.5, 0.5], PeriodicSite: Ag (0.0, 0.0, 0.0) [0.0, 0.0, 0.0], PeriodicSite: F (2.2, 0.0, 0.0) [0.5, 0.0, 0.0], PeriodicSite: F (0.0, 2.2, 0.0) [0.0, 0.5, 0.0], PeriodicSite: F (0.0, 0.0, 2.2) [0.0, 0.0, 0.5]]",85.15316324173547,"[Element Mg, Element Ag, Element F, Element F, Element F]",False,False,-1.5953921128333335,1.195872592000005,0.0
1370,mp,mp-8558.cif,Ba1 Np1 O3,BaNpO3,Pm-3m,4.40770786,4.40768834,4.40770786,90.0,90.0,90.0,"(True, True, True)","[PeriodicSite: Ba (2.204, 2.204, 2.204) [0.5, 0.5, 0.5], PeriodicSite: Np (0.0, 0.0, 0.0) [-0.0, -0.0, -0.0], PeriodicSite: O (0.0, 2.204, 0.0) [0.0, 0.5, 0.0], PeriodicSite: O (0.0, 0.0, 2.204) [0.0, 0.0, 0.5], PeriodicSite: O (2.204, 0.0, 0.0) [0.5, 0.0, 0.0]]",85.63207796094373,"[Element Ba, Element Np, Element O, Element O, Element O]",True,True,-3.3776970389999996,0.0,0.0
1371,mp,mp-15805.cif,Mn3 Zn1 N1,Mn3ZnN,Pm-3m,3.96245195,3.96249865,3.96233593,90.0,90.0,90.0,"(True, True, True)","[PeriodicSite: Mn (1.981, 0.0, 1.981) [0.5, -0.0, 0.5], PeriodicSite: Mn (0.0, 1.981, 1.981) [0.0, 0.5, 0.5], PeriodicSite: Mn (1.981, 1.981, 0.0) [0.5, 0.5, 0.0], PeriodicSite: Zn (0.0, 0.0, 0.0) [0.0, -0.0, -0.0], PeriodicSite: N (1.981, 1.981, 1.981) [0.5, 0.5, 0.5]]",62.21347051880614,"[Element Mn, Element Mn, Element Mn, Element Zn, Element N]",True,True,-0.27620411575861964,0.0,0.0
1372,mp,mp-510380.cif,Mn3 Cu1 N1,Mn3CuN,Pm-3m,3.828847,3.828847,3.828847,90.0,90.0,90.0,"(True, True, True)","[PeriodicSite: Mn (0.0, 1.914, 1.914) [0.0, 0.5, 0.5], PeriodicSite: Mn (1.914, 1.914, 0.0) [0.5, 0.5, 0.0], PeriodicSite: Mn (1.914, 0.0, 1.914) [0.5, 0.0, 0.5], PeriodicSite: Cu (0.0, 0.0, 0.0) [0.0, 0.0, 0.0], PeriodicSite: N (1.914, 1.914, 1.914) [0.5, 0.5, 0.5]]",56.131162548276606,"[Element Mn, Element Mn, Element Mn, Element Cu, Element N]",False,True,-0.1755092577586197,0.06883214624999923,0.0
1373,mp,mp-22995.cif,Ag3 S1 I1,Ag3SI,R3,4.957723769604353,4.957723769604353,4.957723388049196,89.90935870178335,89.90935870178335,89.90935680288099,"(True, True, True)","[PeriodicSite: Ag (1.945, -1.748, 1.893) [0.526, 0.02709, 0.3819], PeriodicSite: Ag (1.441, 1.243, 2.608) [0.02709, 0.3819, 0.526], PeriodicSite: Ag (3.186, 0.5046, 0.1343) [0.3819, 0.526, 0.02709], PeriodicSite: S (3.73, 0.0, 2.632) [0.5308, 0.5308, 0.5308], PeriodicSite: I (7.015, 0.0, 4.949) [0.9982, 0.9982, 0.9982]]",121.85555000145258,"[Element Ag, Element Ag, Element Ag, Element S, Element I]",False,False,-0.27701369262500036,0.05785251300000027,0.7261000000000002
1374,mp,mp-978926.cif,Sm1 Ge1 O3,SmGeO3,Pm-3m,3.946684,3.946684,3.946684,90.0,90.0,90.0,"(True, True, True)","[PeriodicSite: Sm (0.0, 0.0, 0.0) [0.0, 0.0, 0.0], PeriodicSite: Ge (1.973, 1.973, 1.973) [0.5, 0.5, 0.5], PeriodicSite: O (1.973, 1.973, 0.0) [0.5, 0.5, 0.0], PeriodicSite: O (1.973, 0.0, 1.973) [0.5, 0.0, 0.5], PeriodicSite: O (0.0, 1.973, 1.973) [0.0, 0.5, 0.5]]",61.47479159443134,"[Element Sm, Element Ge, Element O, Element O, Element O]",False,False,-2.45967347925,0.5082992154687513,0.0
1375,mp,mp-1207172.cif,Sr1 Pu1 O3,SrPuO3,Pm-3m,4.36308,4.36308,4.36308,90.0,90.0,90.0,"(True, True, True)","[PeriodicSite: Sr (2.182, 2.182, 2.182) [0.5, 0.5, 0.5], PeriodicSite: Pu (0.0, 0.0, 0.0) [0.0, 0.0, 0.0], PeriodicSite: O (2.182, 0.0, 0.0) [0.5, 0.0, 0.0], PeriodicSite: O (0.0, 2.182, 0.0) [0.0, 0.5, 0.0], PeriodicSite: O (0.0, 0.0, 2.182) [0.0, 0.0, 0.5]]",83.05762881533012,"[Element Sr, Element Pu, Element O, Element O, Element O]",False,True,-3.3308149905833337,0.09064379800000566,0.0
1376,mp,mp-1207083.cif,Fe1 Sn1 O3,FeSnO3,Pm-3m,4.02578,4.02578,4.02578,90.0,90.0,90.0,"(True, True, True)","[PeriodicSite: Fe (2.013, 2.013, 2.013) [0.5, 0.5, 0.5], PeriodicSite: Sn (0.0, 0.0, 0.0) [0.0, 0.0, 0.0], PeriodicSite: O (2.013, 0.0, 0.0) [0.5, 0.0, 0.0], PeriodicSite: O (0.0, 2.013, 0.0) [0.0, 0.5, 0.0], PeriodicSite: O (0.0, 0.0, 2.013) [0.0, 0.0, 0.5]]",65.24543243440456,"[Element Fe, Element Sn, Element O, Element O, Element O]",False,True,-1.0824363242500006,0.7771393140000002,0.0
1377,mp,mp-29725.cif,Y1 B1 Rh3,YBRh3,Pm-3m,4.17882149,4.17882149,4.17882149,90.0,90.0,90.0,"(True, True, True)","[PeriodicSite: Y (0.0, 0.0, 0.0) [-0.0, -0.0, -0.0], PeriodicSite: B (2.089, 2.089, 2.089) [0.5, 0.5, 0.5], PeriodicSite: Rh (0.0, 2.089, 2.089) [-0.0, 0.5, 0.5], PeriodicSite: Rh (2.089, 2.089, 0.0) [0.5, 0.5, -0.0], PeriodicSite: Rh (2.089, 0.0, 2.089) [0.5, -0.0, 0.5]]",72.97287522061936,"[Element Y, Element B, Element Rh, Element Rh, Element Rh]",True,False,-0.7739991231666664,0.0,0.0
1378,mp,mp-1226634.cif,Ce1 Al3 Pd1,CeAl3Pd,I-4m2,6.263127719281956,6.263127719281956,6.263127719281956,140.9531418866156,140.9531418866156,56.40890758067778,"(True, True, True)","[PeriodicSite: Ce (0.0, 0.0, 0.0) [0.0, 0.0, 0.0], PeriodicSite: Al (0.0, 0.0, 6.792) [0.6153, 0.6153, 0.0], PeriodicSite: Al (0.0, 0.0, 4.247) [0.3847, 0.3847, 0.0], PeriodicSite: Al (0.0, 2.093, 2.76) [0.75, 0.25, 0.5], PeriodicSite: Pd (2.093, 0.0, 2.76) [0.25, 0.75, 0.5]]",96.72394870688436,"[Element Ce, Element Al, Element Al, Element Al, Element Pd]",False,True,-0.5865818909999995,0.07429680566667063,0.0
1379,mp,mp-1219023.cif,Sm1 Ga3 Ni1,SmGa3Ni,I-4m2,6.046686035552367,6.046686035552367,6.046686035552367,140.3790890322324,140.3790890322324,57.278155947193966,"(True, True, True)","[PeriodicSite: Sm (0.0, 0.0, 0.0) [0.0, 0.0, 0.0], PeriodicSite: Ga (0.0, 0.0, 6.553) [0.6174, 0.6174, 0.0], PeriodicSite: Ga (0.0, 0.0, 4.061) [0.3826, 0.3826, 0.0], PeriodicSite: Ga (-2.22e-16, 2.049, 2.653) [0.75, 0.25, 0.5], PeriodicSite: Ni (2.049, -2.22e-16, 2.653) [0.25, 0.75, 0.5]]",89.14653770751671,"[Element Sm, Element Ga, Element Ga, Element Ga, Element Ni]",False,False,-0.5322667455000001,0.24256820999999995,0.0
1380,mp,mp-975274.cif,Rb1 Na1 O3,RbNaO3,Pm-3m,4.527717,4.527717,4.527717,90.0,90.0,90.0,"(True, True, True)","[PeriodicSite: Rb (0.0, 0.0, 0.0) [0.0, 0.0, 0.0], PeriodicSite: Na (2.264, 2.264, 2.264) [0.5, 0.5, 0.5], PeriodicSite: O (2.264, 2.264, 0.0) [0.5, 0.5, 0.0], PeriodicSite: O (2.264, 0.0, 2.264) [0.5, 0.0, 0.5], PeriodicSite: O (0.0, 2.264, 2.264) [0.0, 0.5, 0.5]]",92.81920017629031,"[Element Rb, Element Na, Element O, Element O, Element O]",False,True,-0.5067735720603451,0.6004236366666649,0.0
1381,mp,mp-1207180.cif,Ho1 Sb1 O3,HoSbO3,Pm-3m,4.246295,4.246295,4.246295,90.0,90.0,90.0,"(True, True, True)","[PeriodicSite: Ho (2.123, 2.123, 2.123) [0.5, 0.5, 0.5], PeriodicSite: Sb (0.0, 0.0, 0.0) [0.0, 0.0, 0.0], PeriodicSite: O (2.123, 0.0, 0.0) [0.5, 0.0, 0.0], PeriodicSite: O (0.0, 2.123, 0.0) [0.0, 0.5, 0.0], PeriodicSite: O (0.0, 0.0, 2.123) [0.0, 0.0, 0.5]]",76.56503528121013,"[Element Ho, Element Sb, Element O, Element O, Element O]",False,False,-1.8675298092499992,1.0767345525499978,0.0
1382,mp,mp-20501.cif,Gd3 In1 C1,Gd3InC,Pm-3m,5.660396,5.660396,5.660396,90.0,90.0,90.0,"(True, True, True)","[PeriodicSite: Gd (0.0, 2.83, 2.83) [0.0, 0.5, 0.5], PeriodicSite: Gd (2.83, 0.0, 2.83) [0.5, 0.0, 0.5], PeriodicSite: Gd (2.83, 2.83, 0.0) [0.5, 0.5, 0.0], PeriodicSite: In (2.83, 2.83, 2.83) [0.5, 0.5, 0.5], PeriodicSite: C (0.0, 0.0, 0.0) [0.0, 0.0, 0.0]]",181.35955695559784,"[Element Gd, Element Gd, Element Gd, Element In, Element C]",False,True,1.5435451824999986,1.8880663800000015,0.0
1383,mp,mp-998749.cif,K1 Ca1 Br3,KCaBr3,Cm,5.721591970923915,5.721591970923915,5.716306996816826,89.89823650051311,89.89823650051311,89.88657752717933,"(True, True, True)","[PeriodicSite: K (0.0, 8.08, 0.0004687) [0.9975, 0.9975, 8.2e-05], PeriodicSite: Ca (0.0, 4.015, 2.762) [0.4948, 0.4948, 0.4831], PeriodicSite: Br (-2.03, 6.054, 2.771) [0.4956, 0.9977, 0.4848], PeriodicSite: Br (0.0, 4.128, 5.624) [0.5079, 0.5079, 0.9838], PeriodicSite: Br (2.03, 6.054, 2.771) [0.9977, 0.4956, 0.4848]]",187.1315837363699,"[Element K, Element Ca, Element Br, Element Br, Element Br]",False,False,-2.2694142806,0.054550366000000405,3.6852
1384,mp,mp-21850.cif,Fe3 Sn1 C1,Fe3SnC,Pm-3m,3.891169,3.891169,3.891169,90.0,90.0,90.0,"(True, True, True)","[PeriodicSite: Fe (1.946, 0.0, 1.946) [0.5, 0.0, 0.5], PeriodicSite: Fe (0.0, 1.946, 1.946) [0.0, 0.5, 0.5], PeriodicSite: Fe (1.946, 1.946, 0.0) [0.5, 0.5, 0.0], PeriodicSite: Sn (0.0, 0.0, 0.0) [0.0, 0.0, 0.0], PeriodicSite: C (1.946, 1.946, 1.946) [0.5, 0.5, 0.5]]",58.91695322406438,"[Element Fe, Element Fe, Element Fe, Element Sn, Element C]",False,False,0.06921346550000038,0.07030343850000254,0.0
1385,mp,mp-20446.cif,Sn1 Pt3 C1,SnPt3C,Pm-3m,4.298023,4.298023,4.298023,90.0,90.0,90.0,"(True, True, True)","[PeriodicSite: Sn (0.0, 0.0, 0.0) [0.0, 0.0, 0.0], PeriodicSite: Pt (0.0, 2.149, 2.149) [0.0, 0.5, 0.5], PeriodicSite: Pt (2.149, 2.149, 0.0) [0.5, 0.5, 0.0], PeriodicSite: Pt (2.149, 0.0, 2.149) [0.5, 0.0, 0.5], PeriodicSite: C (2.149, 2.149, 2.149) [0.5, 0.5, 0.5]]",79.39738622229692,"[Element Sn, Element Pt, Element Pt, Element Pt, Element C]",False,False,0.34309128550000023,0.6445537544999995,0.0
1386,mp,mp-865927.cif,Ac1 Ti1 O3,AcTiO3,Pm-3m,3.99582001,3.99582001,3.99582001,90.0,90.0,90.0,"(True, True, True)","[PeriodicSite: Ac (0.0, 0.0, 0.0) [-0.0, -0.0, -0.0], PeriodicSite: Ti (1.998, 1.998, 1.998) [0.5, 0.5, 0.5], PeriodicSite: O (1.998, 1.998, 0.0) [0.5, 0.5, -0.0], PeriodicSite: O (1.998, 0.0, 1.998) [0.5, 0.0, 0.5], PeriodicSite: O (0.0, 1.998, 1.998) [-0.0, 0.5, 0.5]]",63.7995700747627,"[Element Ac, Element Ti, Element O, Element O, Element O]",True,False,-3.6083991144166676,0.0,0.0
1387,mp,mp-570008.cif,Sr3 Bi1 N1,Sr3BiN,Pm-3m,5.23493993,5.23493993,5.23493993,90.0,90.0,90.0,"(True, True, True)","[PeriodicSite: Sr (2.617, 2.617, 0.0) [0.5, 0.5, -0.0], PeriodicSite: Sr (0.0, 2.617, 2.617) [0.0, 0.5, 0.5], PeriodicSite: Sr (2.617, 0.0, 2.617) [0.5, -0.0, 0.5], PeriodicSite: Bi (0.0, 0.0, 0.0) [-0.0, -0.0, -0.0], PeriodicSite: N (2.617, 2.617, 2.617) [0.5, 0.5, 0.5]]",143.46141423607256,"[Element Sr, Element Sr, Element Sr, Element Bi, Element N]",True,False,-0.9434717990000003,0.0,0.2568999999999999
1388,mp,mp-1228805.cif,Al1 O1 F3,AlOF3,P4/mmm,3.965355,3.965355,3.555823,90.0,90.0,90.0,"(True, True, True)","[PeriodicSite: Al (0.0, 0.0, 0.0) [0.0, 0.0, 0.0], PeriodicSite: O (1.983, 1.983, 0.0) [0.5, 0.5, 0.0], PeriodicSite: F (0.0, 0.0, 1.778) [0.0, 0.0, 0.5], PeriodicSite: F (1.983, 0.0, 0.0) [0.5, 0.0, 0.0], PeriodicSite: F (0.0, 1.983, 0.0) [0.0, 0.5, 0.0]]",55.91190406641605,"[Element Al, Element O, Element F, Element F, Element F]",False,False,-2.13402849725,0.962267305250001,0.0
1389,mp,mp-975173.cif,Rb1 Y1 O3,RbYO3,Pm-3m,4.543095,4.543095,4.543095,90.0,90.0,90.0,"(True, True, True)","[PeriodicSite: Rb (0.0, 0.0, 0.0) [0.0, 0.0, 0.0], PeriodicSite: Y (2.272, 2.272, 2.272) [0.5, 0.5, 0.5], PeriodicSite: O (2.272, 2.272, 0.0) [0.5, 0.5, 0.0], PeriodicSite: O (2.272, 0.0, 2.272) [0.5, 0.0, 0.5], PeriodicSite: O (0.0, 2.272, 2.272) [0.0, 0.5, 0.5]]",93.76817320196758,"[Element Rb, Element Y, Element O, Element O, Element O]",False,True,-2.268129272083334,0.25637094387499904,0.0
1390,mp,mp-974734.cif,K1 In1 O3,KInO3,Pm-3m,4.308433,4.308433,4.308433,90.0,90.0,90.0,"(True, True, True)","[PeriodicSite: K (0.0, 0.0, 0.0) [0.0, 0.0, 0.0], PeriodicSite: In (2.154, 2.154, 2.154) [0.5, 0.5, 0.5], PeriodicSite: O (2.154, 2.154, 0.0) [0.5, 0.5, 0.0], PeriodicSite: O (2.154, 0.0, 2.154) [0.5, 0.0, 0.5], PeriodicSite: O (0.0, 2.154, 2.154) [0.0, 0.5, 0.5]]",79.97569649952503,"[Element K, Element In, Element O, Element O, Element O]",False,True,-1.28119227185,0.2916370473333334,0.0
1391,mp,mp-1219609.cif,Rb1 Cu1 S3,RbCuS3,Pmm2,4.181384,3.480629,7.901201,90.0,90.0,90.0,"(True, True, True)","[PeriodicSite: Rb (0.0, 0.0, 3.988) [0.0, 0.0, 0.5047], PeriodicSite: Cu (2.091, 0.0, 7.181) [0.5, 0.0, 0.9088], PeriodicSite: S (0.0, 0.0, 0.703) [0.0, 0.0, 0.08897], PeriodicSite: S (2.091, 1.74, 5.709) [0.5, 0.5, 0.7226], PeriodicSite: S (2.091, 1.74, 0.9236) [0.5, 0.5, 0.1169]]",114.99286581277347,"[Element Rb, Element Cu, Element S, Element S, Element S]",False,False,-0.419007857375,0.36558434071428314,0.0
1392,mp,mp-1206910.cif,Co1 Ag1 F3,CoAgF3,Pm-3m,4.044962,4.044962,4.044962,90.0,90.0,90.0,"(True, True, True)","[PeriodicSite: Co (0.0, 0.0, 0.0) [0.0, 0.0, 0.0], PeriodicSite: Ag (2.022, 2.022, 2.022) [0.5, 0.5, 0.5], PeriodicSite: F (2.022, 0.0, 0.0) [0.5, 0.0, 0.0], PeriodicSite: F (0.0, 2.022, 0.0) [0.0, 0.5, 0.0], PeriodicSite: F (0.0, 0.0, 2.022) [0.0, 0.0, 0.5]]",66.1825258716729,"[Element Co, Element Ag, Element F, Element F, Element F]",False,True,-1.6368318458333335,0.26776489000000314,0.0
1393,mp,mp-998366.cif,Rb1 Se1 Br3,RbSeBr3,P4mm,5.49626467,5.49626467,5.48582805,90.0,90.0,90.0,"(True, True, True)","[PeriodicSite: Rb (2.748, 2.748, 5.47) [0.5, 0.5, 0.9972], PeriodicSite: Se (0.0, 0.0, 2.663) [-0.0, 0.0, 0.4855], PeriodicSite: Br (0.0, 2.748, 2.662) [-0.0, 0.5, 0.4852], PeriodicSite: Br (0.0, 0.0, 5.406) [-0.0, 0.0, 0.9854], PeriodicSite: Br (2.748, 0.0, 2.662) [0.5, 0.0, 0.4852]]",165.72096989556928,"[Element Rb, Element Se, Element Br, Element Br, Element Br]",False,True,-1.13676918196875,0.060095448890625125,0.0
1394,mp,mp-606671.cif,Nd3 In1 C1,Nd3InC,Pm-3m,6.150728,6.150728,6.150728,90.0,90.0,90.0,"(True, True, True)","[PeriodicSite: Nd (3.075, 0.0, 0.0) [0.5, 0.0, 0.0], PeriodicSite: Nd (0.0, 3.075, 0.0) [0.0, 0.5, 0.0], PeriodicSite: Nd (0.0, 0.0, 3.075) [0.0, 0.0, 0.5], PeriodicSite: In (0.0, 0.0, 0.0) [0.0, 0.0, 0.0], PeriodicSite: C (3.075, 3.075, 3.075) [0.5, 0.5, 0.5]]",232.6909891185906,"[Element Nd, Element Nd, Element Nd, Element In, Element C]",False,False,1.6845885459999999,2.002076434,0.0
1395,mp,mp-978952.cif,Sn1 Pb1 O3,SnPbO3,Pm-3m,4.127671,4.127671,4.127671,90.0,90.0,90.0,"(True, True, True)","[PeriodicSite: Sn (2.064, 2.064, 2.064) [0.5, 0.5, 0.5], PeriodicSite: Pb (0.0, 0.0, 0.0) [0.0, 0.0, 0.0], PeriodicSite: O (2.064, 2.064, 0.0) [0.5, 0.5, 0.0], PeriodicSite: O (2.064, 0.0, 2.064) [0.5, 0.0, 0.5], PeriodicSite: O (0.0, 2.064, 2.064) [0.0, 0.5, 0.5]]",70.32588763341295,"[Element Sn, Element Pb, Element O, Element O, Element O]",False,False,-1.76175424825,0.11675427349999978,1.0389
1396,mp,mp-5200.cif,Pr1 B1 Rh3,PrBRh3,Pm-3m,4.24621053,4.24624226,4.24620336,90.0,90.0,90.0,"(True, True, True)","[PeriodicSite: Pr (0.0, 0.0, 0.0) [0.0, 0.0, 0.0], PeriodicSite: B (2.123, 2.123, 2.123) [0.5, 0.5, 0.5], PeriodicSite: Rh (0.0, 2.123, 2.123) [0.0, 0.5, 0.5], PeriodicSite: Rh (2.123, 2.123, 0.0) [0.5, 0.5, 0.0], PeriodicSite: Rh (2.123, 0.0, 2.123) [0.5, 0.0, 0.5]]",76.56090895431151,"[Element Pr, Element B, Element Rh, Element Rh, Element Rh]",True,False,-0.671228644833333,0.0,0.0
1397,mp,mp-978490.cif,Si1 Pd1 O3,SiPdO3,Pm-3m,3.598276,3.598276,3.598276,90.0,90.0,90.0,"(True, True, True)","[PeriodicSite: Si (1.799, 1.799, 1.799) [0.5, 0.5, 0.5], PeriodicSite: Pd (0.0, 0.0, 0.0) [0.0, 0.0, 0.0], PeriodicSite: O (1.799, 1.799, 0.0) [0.5, 0.5, 0.0], PeriodicSite: O (1.799, 0.0, 1.799) [0.5, 0.0, 0.5], PeriodicSite: O (0.0, 1.799, 1.799) [0.0, 0.5, 0.5]]",46.58900297437676,"[Element Si, Element Pd, Element O, Element O, Element O]",False,True,-1.564208871249999,0.7127954030000039,0.0
1398,mp,mp-1225550.cif,Dy1 Sb1 Te3,DySbTe3,R3m,10.769234830247365,10.769234830247365,10.769234888564045,23.337075891441092,23.337075891441092,23.337076122781916,"(True, True, True)","[PeriodicSite: Dy (12.4, 0.0, 1.489) [0.3976, 0.3976, 0.3976], PeriodicSite: Sb (18.75, 0.0, 2.251) [0.6011, 0.6011, 0.6011], PeriodicSite: Te (0.0698, 0.0, 0.008383) [0.002238, 0.002238, 0.002238], PeriodicSite: Te (6.721, 0.0, 0.8071) [0.2155, 0.2155, 0.2155], PeriodicSite: Te (24.44, 0.0, 2.935) [0.7835, 0.7835, 0.7835]]",172.08457561205267,"[Element Dy, Element Sb, Element Te, Element Te, Element Te]",False,False,-0.9929890999999997,0.029413948999999384,0.8479000000000001
1399,mp,mp-975463.cif,Rb1 Ac1 O3,RbAcO3,Pm-3m,4.636158,4.636158,4.636158,90.0,90.0,90.0,"(True, True, True)","[PeriodicSite: Rb (0.0, 0.0, 0.0) [0.0, 0.0, 0.0], PeriodicSite: Ac (2.318, 2.318, 2.318) [0.5, 0.5, 0.5], PeriodicSite: O (2.318, 2.318, 0.0) [0.5, 0.5, 0.0], PeriodicSite: O (2.318, 0.0, 2.318) [0.5, 0.0, 0.5], PeriodicSite: O (0.0, 2.318, 2.318) [0.0, 0.5, 0.5]]",99.64939924630725,"[Element Rb, Element Ac, Element O, Element O, Element O]",False,False,-2.22754085125,0.18033347100000086,0.0
1400,mp,mp-989564.cif,La1 Os1 N3,LaOsN3,Pm-3m,3.950555,3.950555,3.950555,90.0,90.0,90.0,"(True, True, True)","[PeriodicSite: La (1.975, 1.975, 1.975) [0.5, 0.5, 0.5], PeriodicSite: Os (0.0, 0.0, 0.0) [0.0, 0.0, 0.0], PeriodicSite: N (1.975, 0.0, 0.0) [0.5, 0.0, 0.0], PeriodicSite: N (0.0, 1.975, 0.0) [0.0, 0.5, 0.0], PeriodicSite: N (0.0, 0.0, 1.975) [0.0, 0.0, 0.5]]",61.655856812767205,"[Element La, Element Os, Element N, Element N, Element N]",False,False,-0.5602430819999995,0.053189756000001864,0.0
1401,mp,mp-861502.cif,Ac1 Fe1 O3,AcFeO3,Pm-3m,3.95356962,3.953567500001287,3.953584510001287,90.00009245985731,90.0,90.0,"(True, True, True)","[PeriodicSite: Ac (0.0, 0.0, 0.0) [-0.0, 0.0, 0.0], PeriodicSite: Fe (1.977, 1.977, 1.977) [0.5, 0.5, 0.5], PeriodicSite: O (1.977, 1.977, 3.954) [0.5, 0.5, 1.0], PeriodicSite: O (1.977, 3.954, 1.977) [0.5, 1.0, 0.5], PeriodicSite: O (3.954, 1.977, 1.977) [1.0, 0.5, 0.5]]",61.79731063258672,"[Element Ac, Element Fe, Element O, Element O, Element O]",True,True,-2.77230284175,0.0,0.9887999999999995
1402,mp,mp-20860.cif,Mn3 Sn1 C1,Mn3SnC,Pm-3m,3.893463,3.893463,3.893463,90.0,90.0,90.0,"(True, True, True)","[PeriodicSite: Mn (0.0, 1.947, 1.947) [0.0, 0.5, 0.5], PeriodicSite: Mn (1.947, 1.947, 0.0) [0.5, 0.5, 0.0], PeriodicSite: Mn (1.947, 0.0, 1.947) [0.5, 0.0, 0.5], PeriodicSite: Sn (0.0, 0.0, 0.0) [0.0, 0.0, 0.0], PeriodicSite: C (1.947, 1.947, 1.947) [0.5, 0.5, 0.5]]",59.02121637937581,"[Element Mn, Element Mn, Element Mn, Element Sn, Element C]",False,True,-0.016241043258621347,0.05492946084782524,0.0
1403,mp,mp-1209191.cif,Rb1 Pb1 Cl3,RbPbCl3,Pm-3m,5.723076,5.723076,5.723076,90.0,90.0,90.0,"(True, True, True)","[PeriodicSite: Rb (2.862, 2.862, 2.862) [0.5, 0.5, 0.5], PeriodicSite: Pb (0.0, 0.0, 0.0) [0.0, 0.0, 0.0], PeriodicSite: Cl (2.862, 0.0, 0.0) [0.5, 0.0, 0.0], PeriodicSite: Cl (0.0, 2.862, 0.0) [0.0, 0.5, 0.0], PeriodicSite: Cl (0.0, 0.0, 2.862) [0.0, 0.0, 0.5]]",187.45133578838053,"[Element Rb, Element Pb, Element Cl, Element Cl, Element Cl]",False,False,-1.8284093714999998,0.038352820000000065,2.1963
1404,mp,mp-973977.cif,Ho1 Sn1 O3,HoSnO3,Pm-3m,4.351836,4.351836,4.351836,90.0,90.0,90.0,"(True, True, True)","[PeriodicSite: Ho (0.0, 0.0, 0.0) [0.0, 0.0, 0.0], PeriodicSite: Sn (2.176, 2.176, 2.176) [0.5, 0.5, 0.5], PeriodicSite: O (0.0, 0.0, 2.176) [0.0, 0.0, 0.5], PeriodicSite: O (0.0, 2.176, 0.0) [0.0, 0.5, 0.0], PeriodicSite: O (2.176, 0.0, 0.0) [0.5, 0.0, 0.0]]",82.41714412638174,"[Element Ho, Element Sn, Element O, Element O, Element O]",False,True,-2.13562646825,0.8692622737187534,0.0
1405,mp,mp-998554.cif,K1 Ag1 Cl3,KAgCl3,P1,5.055190599113022,5.055300118341113,5.067238667179525,90.03159851115491,90.00151249224542,89.99824552756786,"(True, True, True)","[PeriodicSite: K (-5.054, -5.071, -5.024) [0.9992, 0.999, 0.9968], PeriodicSite: Ag (-2.529, -2.473, -2.504) [0.5001, 0.4977, 0.4861], PeriodicSite: Cl (-0.001769, -2.465, -2.494) [7.85e-05, 0.4951, 0.4849], PeriodicSite: Cl (-2.536, -5.006, -2.508) [0.5018, 0.5004, 0.986], PeriodicSite: Cl (-2.527, -2.482, -5.031) [0.4989, 0.9977, 0.4862]]",129.49582650872793,"[Element K, Element Ag, Element Cl, Element Cl, Element Cl]",False,False,-1.3949687079333337,0.0016873829999997092,0.0