,provider,id,Full_Formula,formula,space_group,a_lattice_param,b_lattice_param,c_lattice_param,aplha_degree,beta_degree,gamma_degree,pbc,sits,volume,species_at_sites,is_stable,is_magnetic,formation_energy,energy_above_hull,band_gap
1661,mp,mp-7130.cif,Sc1 Ru3 C1,ScRu3C,Pm-3m,4.06130662,4.06130662,4.06130662,90.0,90.0,90.0,"(True, True, True)","[PeriodicSite: Sc (0.0, 0.0, 0.0) [0.0, -0.0, 0.0], PeriodicSite: Ru (0.0, 2.031, 2.031) [0.0, 0.5, 0.5], PeriodicSite: Ru (2.031, 0.0, 2.031) [0.5, 0.0, 0.5], PeriodicSite: Ru (2.031, 2.031, 0.0) [0.5, 0.5, 0.0], PeriodicSite: C (2.031, 2.031, 2.031) [0.5, 0.5, 0.5]]",66.98805020090266,"[Element Sc, Element Ru, Element Ru, Element Ru, Element C]",True,False,-0.2767319985,0.0,0.0
1662,mp,mp-1226614.cif,Ce1 Co1 Si3,CeCoSi3,I-4m2,5.732881217822849,5.732881217822849,5.732881217822849,139.52060105312572,139.52060105312572,58.5819260111282,"(True, True, True)","[PeriodicSite: Ce (0.0, 0.0, 0.0) [0.0, 0.0, 0.0], PeriodicSite: Co (1.983, -1.11e-16, 2.5) [0.25, 0.75, 0.5], PeriodicSite: Si (0.0, 0.0, 6.2) [0.6201, 0.6201, 0.0], PeriodicSite: Si (0.0, 0.0, 3.799) [0.3799, 0.3799, 0.0], PeriodicSite: Si (-1.11e-16, 1.983, 2.5) [0.75, 0.25, 0.5]]",78.66668594117921,"[Element Ce, Element Co, Element Si, Element Si, Element Si]",False,True,-0.4754051480000001,0.1882368019999996,0.0
1663,mp,mp-5660.cif,Ba1 Ir1 O3,BaIrO3,Pm-3m,4.077295,4.077295,4.077295,90.0,90.0,90.0,"(True, True, True)","[PeriodicSite: Ba (2.039, 2.039, 2.039) [0.5, 0.5, 0.5], PeriodicSite: Ir (0.0, 0.0, 0.0) [0.0, 0.0, 0.0], PeriodicSite: O (0.0, 0.0, 2.039) [0.0, 0.0, 0.5], PeriodicSite: O (2.039, 0.0, 0.0) [0.5, 0.0, 0.0], PeriodicSite: O (0.0, 2.039, 0.0) [0.0, 0.5, 0.0]]",67.78231600459345,"[Element Ba, Element Ir, Element O, Element O, Element O]",False,False,-1.8806445332500004,0.14323426162500041,0.0
1664,mp,mp-972985.cif,K1 Pd1 O3,KPdO3,Pm-3m,4.070076,4.070076,4.070076,90.0,90.0,90.0,"(True, True, True)","[PeriodicSite: K (0.0, 0.0, 0.0) [0.0, 0.0, 0.0], PeriodicSite: Pd (2.035, 2.035, 2.035) [0.5, 0.5, 0.5], PeriodicSite: O (2.035, 2.035, 0.0) [0.5, 0.5, 0.0], PeriodicSite: O (2.035, 0.0, 2.035) [0.5, 0.0, 0.5], PeriodicSite: O (0.0, 2.035, 2.035) [0.0, 0.5, 0.5]]",67.42291986772541,"[Element K, Element Pd, Element O, Element O, Element O]",False,True,-0.8304207318499998,0.1662051293333331,0.0
1665,mp,mp-1227345.cif,Ba1 Tl3 Au1,BaTl3Au,I4mm,5.062475,5.062475,7.208156014449327,69.44153996805281,69.44153996805281,90.0,"(True, True, True)","[PeriodicSite: Ba (2.531, 2.531, 6.199) [0.004597, 0.004597, 0.9908], PeriodicSite: Tl (5.062, 2.531, 3.232) [0.7417, 0.2417, 0.5166], PeriodicSite: Tl (2.531, 5.062, 3.232) [0.2417, 0.7417, 0.5166], PeriodicSite: Tl (2.531, 2.531, 1.326) [0.394, 0.394, 0.2119], PeriodicSite: Au (5.062, 5.062, 4.78) [0.618, 0.618, 0.764]]",160.3444381051228,"[Element Ba, Element Tl, Element Tl, Element Tl, Element Au]",False,False,-0.33181091000000007,0.011993806333333357,0.0
1666,mp,mp-510376.cif,Ce1 B1 Rh3,CeBRh3,Pm-3m,4.21149204,4.2115074,4.21148897,90.0,90.0,90.0,"(True, True, True)","[PeriodicSite: Ce (0.0, 0.0, 0.0) [0.0, -0.0, 0.0], PeriodicSite: B (2.106, 2.106, 2.106) [0.5, 0.5, 0.5], PeriodicSite: Rh (0.0, 2.106, 2.106) [0.0, 0.5, 0.5], PeriodicSite: Rh (2.106, 2.106, 0.0) [0.5, 0.5, -0.0], PeriodicSite: Rh (2.106, 0.0, 2.106) [0.5, -0.0, 0.5]]",74.69804230192618,"[Element Ce, Element B, Element Rh, Element Rh, Element Rh]",True,True,-0.7609627028333321,0.0,0.0
1667,mp,mp-998363.cif,Ni1 Bi1 O3,NiBiO3,Cm,3.918214636913731,3.918214636913731,3.87091793396928,89.27844766986522,89.27844766986522,88.36897960143976,"(True, True, True)","[PeriodicSite: Ni (0.0, 2.894, 1.964) [0.5088, 0.5088, 0.5075], PeriodicSite: Bi (0.0, 5.329, 3.75) [0.9366, 0.9366, 0.9689], PeriodicSite: O (-1.456, 1.634, 2.019) [0.01781, 0.551, 0.5217], PeriodicSite: O (1.456, 1.634, 2.019) [0.551, 0.01781, 0.5217], PeriodicSite: O (0.0, 3.031, 0.03866) [0.5392, 0.5392, 0.009989]]",59.39466570278917,"[Element Ni, Element Bi, Element O, Element O, Element O]",False,True,-1.2374816072500003,0.13874435425000797,0.0
1668,mp,mp-1399724.cif,Mn1 Al1 O3,MnAlO3,Pm-3m,3.7592,3.7592,3.7592,90.0,90.0,90.0,"(True, True, True)","[PeriodicSite: Mn (0.0, 0.0, 0.0) [0.0, 0.0, 0.0], PeriodicSite: Al (1.88, 1.88, 1.88) [0.5, 0.5, 0.5], PeriodicSite: O (0.0, 0.0, 1.88) [0.0, 0.0, 0.5], PeriodicSite: O (0.0, 1.88, 0.0) [0.0, 0.5, 0.0], PeriodicSite: O (1.88, 0.0, 0.0) [0.5, 0.0, 0.0]]",53.123452978688,"[Element Mn, Element Al, Element O, Element O, Element O]",False,True,-1.4313978708362072,1.3029129779431834,0.0
1669,mp,mp-3614.cif,K1 Ta1 O3,KTaO3,Pm-3m,3.99488137,3.99488137,3.99488137,90.0,90.0,90.0,"(True, True, True)","[PeriodicSite: K (1.997, 1.997, 1.997) [0.5, 0.5, 0.5], PeriodicSite: Ta (0.0, 0.0, 0.0) [0.0, -0.0, 0.0], PeriodicSite: O (0.0, 1.997, 0.0) [-0.0, 0.5, -0.0], PeriodicSite: O (0.0, 0.0, 1.997) [-0.0, 0.0, 0.5], PeriodicSite: O (1.997, 0.0, 0.0) [0.5, -0.0, -0.0]]",63.7546200303669,"[Element K, Element Ta, Element O, Element O, Element O]",True,False,-3.0783753718499995,0.0,2.0995
1670,mp,mp-998204.cif,Rb1 In1 Cl3,RbInCl3,Cm,5.452333292110819,5.452333292110819,5.452959708538566,89.8379827802266,89.8379827802266,90.13919046791544,"(True, True, True)","[PeriodicSite: Rb (0.0, 7.688, 0.01562) [0.9983, 0.9983, 0.002864], PeriodicSite: In (0.0, 3.85, 2.804) [0.4985, 0.4985, 0.5142], PeriodicSite: Cl (1.946, 5.771, 2.813) [0.9999, 0.4958, 0.5159], PeriodicSite: Cl (0.0, 3.887, 0.07839) [0.5047, 0.5047, 0.01438], PeriodicSite: Cl (-1.946, 5.771, 2.813) [0.4958, 0.9999, 0.5159]]",162.1034722167248,"[Element Rb, Element In, Element Cl, Element Cl, Element Cl]",False,False,-1.7340653934999999,0.03646493699999942,0.0
1671,mp,mp-974108.cif,Ni1 Pb1 O3,NiPbO3,Pm-3m,3.810554,3.810554,3.810554,90.0,90.0,90.0,"(True, True, True)","[PeriodicSite: Ni (1.905, 1.905, 1.905) [0.5, 0.5, 0.5], PeriodicSite: Pb (0.0, 0.0, 0.0) [0.0, 0.0, 0.0], PeriodicSite: O (1.905, 1.905, 0.0) [0.5, 0.5, 0.0], PeriodicSite: O (1.905, 0.0, 1.905) [0.5, 0.0, 0.5], PeriodicSite: O (0.0, 1.905, 1.905) [0.0, 0.5, 0.5]]",55.33047026641992,"[Element Ni, Element Pb, Element O, Element O, Element O]",False,True,-0.9231271032499997,0.36695847000000015,0.0
1672,mp,mp-542112.cif,Ca1 Zr1 O3,CaZrO3,Pm-3m,4.160071,4.160071,4.160071,90.0,90.0,90.0,"(True, True, True)","[PeriodicSite: Ca (0.0, 0.0, 0.0) [0.0, 0.0, 0.0], PeriodicSite: Zr (2.08, 2.08, 2.08) [0.5, 0.5, 0.5], PeriodicSite: O (2.08, 2.08, 0.0) [0.5, 0.5, 0.0], PeriodicSite: O (2.08, 0.0, 2.08) [0.5, 0.0, 0.5], PeriodicSite: O (0.0, 2.08, 2.08) [0.0, 0.5, 0.5]]",71.99498215571205,"[Element Ca, Element Zr, Element O, Element O, Element O]",False,False,-3.4790453612500003,0.19189308450000375,3.2122
1673,mp,mp-8196.cif,Ag1 N1 O3,AgNO3,R3m,4.1518363908638065,4.151836044266199,4.1518363908638065,77.22416011831332,77.22415774252582,77.22416011831332,"(True, True, True)","[PeriodicSite: Ag (7.648, 0.0, 3.974) [0.998, 0.998, 0.998], PeriodicSite: N (4.4, 0.0, 2.286) [0.5741, 0.5741, 0.5741], PeriodicSite: O (4.71, 1.1, 1.732) [0.8595, 0.4349, 0.4349], PeriodicSite: O (3.832, 0.0, 3.423) [0.4349, 0.8595, 0.4349], PeriodicSite: O (4.71, -1.1, 1.732) [0.4349, 0.4349, 0.8595]]",66.94305711049056,"[Element Ag, Element N, Element O, Element O, Element O]",False,False,-0.652688477583333,0.031171343000000462,1.7204
1674,mp,mp-998176.cif,Rb1 Pb1 Br3,RbPbBr3,Cm,5.9850843629225485,5.9850843629225485,5.980424007898855,89.94260671123668,89.94260671123668,90.0677190826765,"(True, True, True)","[PeriodicSite: Rb (0.0, 0.03348, 5.979) [0.002956, 0.002956, 0.9998], PeriodicSite: Pb (0.0, 4.278, 2.892) [0.5053, 0.5053, 0.4836], PeriodicSite: Br (2.123, 2.148, 2.902) [0.5041, 0.002769, 0.4853], PeriodicSite: Br (0.0, 4.165, 5.886) [0.4914, 0.4914, 0.9842], PeriodicSite: Br (-2.123, 2.148, 2.902) [0.002769, 0.5041, 0.4853]]",214.22580793725126,"[Element Rb, Element Pb, Element Br, Element Br, Element Br]",False,False,-1.6233743655000001,0.039393365000000014,1.7508000000000001
1675,mp,mp-981550.cif,Rb1 Tm1 O3,RbTmO3,Pm-3m,4.455645,4.455645,4.455645,90.0,90.0,90.0,"(True, True, True)","[PeriodicSite: Rb (0.0, 0.0, 0.0) [0.0, 0.0, 0.0], PeriodicSite: Tm (2.228, 2.228, 2.228) [0.5, 0.5, 0.5], PeriodicSite: O (2.228, 2.228, 0.0) [0.5, 0.5, 0.0], PeriodicSite: O (2.228, 0.0, 2.228) [0.5, 0.0, 0.5], PeriodicSite: O (0.0, 2.228, 2.228) [0.0, 0.5, 0.5]]",88.45690592881743,"[Element Rb, Element Tm, Element O, Element O, Element O]",False,True,-2.342159548083333,0.24325029224999906,0.0
1676,mp,mp-998306.cif,Cs1 Pd1 Br3,CsPdBr3,P1,5.333320029281761,5.332805485895486,5.331624007259514,90.02072608093516,89.99146911841366,90.01612853877451,"(True, True, True)","[PeriodicSite: Cs (5.33, 0.0409, 5.327) [0.9993, 0.007718, 0.999], PeriodicSite: Pd (2.671, 2.747, 2.69) [0.5009, 0.5152, 0.5046], PeriodicSite: Br (0.00357, 2.729, 2.682) [0.000769, 0.5117, 0.5033], PeriodicSite: Br (2.657, 0.07941, 2.659) [0.4982, 0.01492, 0.4987], PeriodicSite: Br (2.671, 2.722, 0.02273) [0.501, 0.5104, 0.004393]]",151.6396774825951,"[Element Cs, Element Pd, Element Br, Element Br, Element Br]",False,False,-1.2885412255862065,5.905200000055899e-05,0.3719999999999999
1677,mp,mp-972822.cif,Si1 B1 O3,SiBO3,Pm-3m,3.336259,3.336259,3.336259,90.0,90.0,90.0,"(True, True, True)","[PeriodicSite: Si (0.0, 0.0, 0.0) [0.0, 0.0, 0.0], PeriodicSite: B (1.668, 1.668, 1.668) [0.5, 0.5, 0.5], PeriodicSite: O (1.668, 1.668, 0.0) [0.5, 0.5, 0.0], PeriodicSite: O (1.668, 0.0, 1.668) [0.5, 0.0, 0.5], PeriodicSite: O (0.0, 1.668, 1.668) [0.0, 0.5, 0.5]]",37.13464487955602,"[Element Si, Element B, Element O, Element O, Element O]",False,False,-0.9896282110833333,1.9162994509791815,0.0
1678,mp,mp-3834.cif,Ba1 Zr1 O3,BaZrO3,Pm-3m,4.21238715,4.21238715,4.21238715,90.0,90.0,90.0,"(True, True, True)","[PeriodicSite: Ba (0.0, 0.0, 0.0) [0.0, 0.0, 0.0], PeriodicSite: Zr (2.106, 2.106, 2.106) [0.5, 0.5, 0.5], PeriodicSite: O (2.106, 0.0, 2.106) [0.5, 0.0, 0.5], PeriodicSite: O (2.106, 2.106, 0.0) [0.5, 0.5, 0.0], PeriodicSite: O (0.0, 2.106, 2.106) [0.0, 0.5, 0.5]]",74.74546324141521,"[Element Ba, Element Zr, Element O, Element O, Element O]",True,False,-3.63993234525,0.0,3.0377
1679,mp,mp-754696.cif,Pr1 Ti1 O3,PrTiO3,Pm-3m,3.943236,3.943236,3.943236,90.0,90.0,90.0,"(True, True, True)","[PeriodicSite: Pr (0.0, 0.0, 0.0) [0.0, 0.0, 0.0], PeriodicSite: Ti (1.972, 1.972, 1.972) [0.5, 0.5, 0.5], PeriodicSite: O (0.0, 1.972, 1.972) [0.0, 0.5, 0.5], PeriodicSite: O (1.972, 0.0, 1.972) [0.5, 0.0, 0.5], PeriodicSite: O (1.972, 1.972, 0.0) [0.5, 0.5, 0.0]]",61.31381091813314,"[Element Pr, Element Ti, Element O, Element O, Element O]",False,False,-3.485200704916667,0.10464501399999904,0.0
1680,mp,mp-1410049.cif,Rb1 Tl1 F3,RbTlF3,Cm,4.749462395921669,4.749462395921669,4.746798926371013,89.593030738434,89.593030738434,89.62412115951246,"(True, True, True)","[PeriodicSite: Rb (0.0, 6.734, 4.709) [0.9923, 0.9923, 0.992], PeriodicSite: Tl (0.0, 3.357, 2.307) [0.4947, 0.4947, 0.486], PeriodicSite: F (-1.673, 5.043, 2.303) [0.495, 0.9948, 0.4851], PeriodicSite: F (0.0, 3.472, 4.677) [0.5083, 0.5083, 0.9853], PeriodicSite: F (1.673, 5.043, 2.303) [0.9948, 0.495, 0.4851]]",107.06773809055923,"[Element Rb, Element Tl, Element F, Element F, Element F]",False,False,-2.4289265836666667,0.05261721600000069,0.0
1681,mp,mp-3869.cif,Tb1 B1 Rh3,TbBRh3,Pm-3m,4.17922594,4.17922594,4.17922594,90.0,90.0,90.0,"(True, True, True)","[PeriodicSite: Tb (0.0, 0.0, 0.0) [0.0, -0.0, 0.0], PeriodicSite: B (2.09, 2.09, 2.09) [0.5, 0.5, 0.5], PeriodicSite: Rh (0.0, 2.09, 2.09) [0.0, 0.5, 0.5], PeriodicSite: Rh (2.09, 2.09, 0.0) [0.5, 0.5, 0.0], PeriodicSite: Rh (2.09, 0.0, 2.09) [0.5, 0.0, 0.5]]",72.99406545528203,"[Element Tb, Element B, Element Rh, Element Rh, Element Rh]",True,False,-0.7857067858333338,0.0,0.0
1682,mp,mp-1416093.cif,Y1 Fe1 O3,YFeO3,Pm-3m,3.883222,3.883222,3.883222,90.0,90.0,90.0,"(True, True, True)","[PeriodicSite: Y (0.0, 0.0, 0.0) [0.0, 0.0, 0.0], PeriodicSite: Fe (1.942, 1.942, 1.942) [0.5, 0.5, 0.5], PeriodicSite: O (1.942, 1.942, 0.0) [0.5, 0.5, 0.0], PeriodicSite: O (1.942, 0.0, 1.942) [0.5, 0.0, 0.5], PeriodicSite: O (0.0, 1.942, 1.942) [0.0, 0.5, 0.5]]",58.55670870199426,"[Element Y, Element Fe, Element O, Element O, Element O]",False,True,-2.4992131105833337,0.34055598087500094,0.6372999999999998
1683,mp,mp-998367.cif,Y1 Re1 N3,YReN3,P1,3.938282,3.950566801974243,3.950570150330203,89.70689620575718,89.06256046558035,88.10488658265547,"(True, True, True)","[PeriodicSite: Y (3.869, 3.807, 3.874) [0.9345, 0.9596, 0.9808], PeriodicSite: Re (2.151, 1.993, 1.986) [0.5212, 0.5025, 0.5028], PeriodicSite: N (2.18, 2.004, 0.01772) [0.5367, 0.5076, 0.004486], PeriodicSite: N (0.2154, 2.038, 2.005) [0.02932, 0.5139, 0.5076], PeriodicSite: N (2.156, 0.03427, 1.996) [0.539, 0.006366, 0.5053]]",61.4222483000434,"[Element Y, Element Re, Element N, Element N, Element N]",False,False,-0.7623436133333342,0.1256800975000001,0.0
1684,mp,mp-7159.cif,La3 Tl1 C1,La3TlC,Pm-3m,5.24077264,5.24077264,5.24077264,90.0,90.0,90.0,"(True, True, True)","[PeriodicSite: La (2.62, 0.0, 2.62) [0.5, 0.0, 0.5], PeriodicSite: La (0.0, 2.62, 2.62) [0.0, 0.5, 0.5], PeriodicSite: La (2.62, 2.62, 0.0) [0.5, 0.5, 0.0], PeriodicSite: Tl (0.0, 0.0, 0.0) [0.0, 0.0, -0.0], PeriodicSite: C (2.62, 2.62, 2.62) [0.5, 0.5, 0.5]]",143.94147790506207,"[Element La, Element La, Element La, Element Tl, Element C]",True,False,-0.29129052116666687,0.0,0.0
1685,mp,mp-1383064.cif,Al1 Cr1 O3,AlCrO3,P4/mmm,3.826701,3.826701,3.726416,90.0,90.0,90.0,"(True, True, True)","[PeriodicSite: Al (0.0, 0.0, 0.0) [0.0, 0.0, 0.0], PeriodicSite: Cr (1.913, 1.913, 1.863) [0.5, 0.5, 0.5], PeriodicSite: O (1.913, 0.0, 1.863) [0.5, 0.0, 0.5], PeriodicSite: O (0.0, 1.913, 1.863) [0.0, 0.5, 0.5], PeriodicSite: O (1.913, 1.913, 0.0) [0.5, 0.5, 0.0]]",54.568296419178175,"[Element Al, Element Cr, Element O, Element O, Element O]",False,True,-1.5545748872500007,1.3427578775000022,0.0
1686,mp,mp-20679.cif,Co3 Sn1 C1,Co3SnC,Pm-3m,3.84709,3.84709,3.84709,90.0,90.0,90.0,"(True, True, True)","[PeriodicSite: Co (0.0, 1.924, 1.924) [0.0, 0.5, 0.5], PeriodicSite: Co (1.924, 1.924, 0.0) [0.5, 0.5, 0.0], PeriodicSite: Co (1.924, 0.0, 1.924) [0.5, 0.0, 0.5], PeriodicSite: Sn (0.0, 0.0, 0.0) [0.0, 0.0, 0.0], PeriodicSite: C (1.924, 1.924, 1.924) [0.5, 0.5, 0.5]]",56.93732235691284,"[Element Co, Element Co, Element Co, Element Sn, Element C]",False,True,0.015256940500000838,0.058628595833332575,0.0
1687,mp,mp-975427.cif,Rb1 Al1 O3,RbAlO3,Pm-3m,3.94407,3.94407,3.94407,90.0,90.0,90.0,"(True, True, True)","[PeriodicSite: Rb (0.0, 0.0, 0.0) [0.0, 0.0, 0.0], PeriodicSite: Al (1.972, 1.972, 1.972) [0.5, 0.5, 0.5], PeriodicSite: O (1.972, 1.972, 0.0) [0.5, 0.5, 0.0], PeriodicSite: O (1.972, 0.0, 1.972) [0.5, 0.0, 0.5], PeriodicSite: O (0.0, 1.972, 1.972) [0.0, 0.5, 0.5]]",61.35272302053714,"[Element Rb, Element Al, Element O, Element O, Element O]",False,True,-1.9261366487499998,0.4014505845555547,0.0
1688,mp,mp-20385.cif,Nd3 In1 C1,Nd3InC,Pm-3m,5.13119013,5.13119536,5.13119536,90.0,90.0,90.0,"(True, True, True)","[PeriodicSite: Nd (2.566, 2.566, 0.0) [0.5, 0.5, -0.0], PeriodicSite: Nd (0.0, 2.566, 2.566) [-0.0, 0.5, 0.5], PeriodicSite: Nd (2.566, 0.0, 2.566) [0.5, -0.0, 0.5], PeriodicSite: In (0.0, 0.0, 0.0) [0.0, 0.0, 0.0], PeriodicSite: C (2.566, 2.566, 2.566) [0.5, 0.5, 0.5]]",135.0999557994711,"[Element Nd, Element Nd, Element Nd, Element In, Element C]",True,False,-0.31748788800000016,0.0,0.0
1689,mp,mp-998159.cif,Tl1 Fe1 F3,TlFeF3,Pm-3m,4.254436,4.254436,4.254436,90.0,90.0,90.0,"(True, True, True)","[PeriodicSite: Tl (0.0, 0.0, 0.0) [0.0, 0.0, 0.0], PeriodicSite: Fe (2.127, 2.127, 2.127) [0.5, 0.5, 0.5], PeriodicSite: F (0.0, 2.127, 2.127) [0.0, 0.5, 0.5], PeriodicSite: F (2.127, 0.0, 2.127) [0.5, 0.0, 0.5], PeriodicSite: F (2.127, 2.127, 0.0) [0.5, 0.5, 0.0]]",77.00625173301604,"[Element Tl, Element Fe, Element F, Element F, Element F]",False,True,-2.0706750381666668,0.27134249850000014,3.4393
1690,mp,mp-998607.cif,Rb1 Tl1 F3,RbTlF3,P1,4.746798483163362,4.749724940487922,4.749199622870047,89.62412528810822,89.34258804606958,89.84344809926014,"(True, True, True)","[PeriodicSite: Rb (-4.733, -4.666, -4.852) [0.992, 0.9965, 0.9923], PeriodicSite: Tl (-2.368, -2.285, -2.419) [0.486, 0.4987, 0.4948], PeriodicSite: F (-4.744, -2.278, -2.444) [0.4851, 0.9989, 0.495], PeriodicSite: F (-2.422, -4.654, -2.549) [0.9853, 0.5081, 0.5127], PeriodicSite: F (-2.355, -2.294, -4.795) [0.4916, 0.4978, 0.9951]]",107.06566338086313,"[Element Rb, Element Tl, Element F, Element F, Element F]",False,False,-2.4286781956666665,0.052865603999999955,0.0
1691,mp,mp-977058.cif,Np1 B1 O3,NpBO3,Pm-3m,3.575258,3.575258,3.575258,90.0,90.0,90.0,"(True, True, True)","[PeriodicSite: Np (1.788, 1.788, 1.788) [0.5, 0.5, 0.5], PeriodicSite: B (0.0, 0.0, 0.0) [0.0, 0.0, 0.0], PeriodicSite: O (0.0, 0.0, 1.788) [0.0, 0.0, 0.5], PeriodicSite: O (0.0, 1.788, 0.0) [0.0, 0.5, 0.0], PeriodicSite: O (1.788, 0.0, 0.0) [0.5, 0.0, 0.0]]",45.70062729266607,"[Element Np, Element B, Element O, Element O, Element O]",False,True,-2.2630913488333335,0.8432484849791653,0.0
1692,mp,mp-2647001.cif,Mg3 Bi1 Sb1,Mg3BiSb,P3m1,4.66434,4.664340925012236,7.360345,90.0,90.0,119.99999343976826,"(True, True, True)","[PeriodicSite: Mg (0.0, 0.0, 0.03307) [0.0, 0.0, 0.004493], PeriodicSite: Mg (-2.332e-06, 2.693, 2.686) [0.3333, 0.6667, 0.3649], PeriodicSite: Mg (2.332, 1.346, 4.607) [0.6667, 0.3333, 0.6259], PeriodicSite: Bi (-2.332e-06, 2.693, 5.738) [0.3333, 0.6667, 0.7796], PeriodicSite: Sb (2.332, 1.346, 1.657) [0.6667, 0.3333, 0.2251]]",138.67855834589432,"[Element Mg, Element Mg, Element Mg, Element Bi, Element Sb]",False,False,-0.3245739819999997,0.006847672125000148,0.1607000000000003
1693,mp,mp-19716.cif,Sm3 In1 N1,Sm3InN,Pm-3m,4.9428586,4.94285653,4.94285653,90.0,90.0,90.0,"(True, True, True)","[PeriodicSite: Sm (2.471, 2.471, 0.0) [0.5, 0.5, -0.0], PeriodicSite: Sm (0.0, 2.471, 2.471) [-0.0, 0.5, 0.5], PeriodicSite: Sm (2.471, 0.0, 2.471) [0.5, 0.0, 0.5], PeriodicSite: In (0.0, 0.0, 0.0) [0.0, -0.0, -0.0], PeriodicSite: N (2.471, 2.471, 2.471) [0.5, 0.5, 0.5]]",120.76308437141928,"[Element Sm, Element Sm, Element Sm, Element In, Element N]",True,False,-0.9875392900000002,0.0,0.0
1694,mp,mp-7223.cif,Ca3 As1 N1,Ca3AsN,Pm-3m,4.75089971,4.75089971,4.75089971,90.0,90.0,90.0,"(True, True, True)","[PeriodicSite: Ca (2.375, 2.375, 0.0) [0.5, 0.5, 0.0], PeriodicSite: Ca (2.375, 0.0, 2.375) [0.5, 0.0, 0.5], PeriodicSite: Ca (0.0, 2.375, 2.375) [0.0, 0.5, 0.5], PeriodicSite: As (0.0, 0.0, 0.0) [-0.0, -0.0, -0.0], PeriodicSite: N (2.375, 2.375, 2.375) [0.5, 0.5, 0.5]]",107.23278565641597,"[Element Ca, Element Ca, Element Ca, Element As, Element N]",False,False,-1.16005368,0.0058243110000004705,0.7169999999999996
1695,mp,mp-20702.cif,Sm1 V1 O3,SmVO3,Pm-3m,3.904088,3.904088,3.904088,90.0,90.0,90.0,"(True, True, True)","[PeriodicSite: Sm (1.952, 1.952, 1.952) [0.5, 0.5, 0.5], PeriodicSite: V (0.0, 0.0, 0.0) [0.0, 0.0, 0.0], PeriodicSite: O (1.952, 0.0, 0.0) [0.5, 0.0, 0.0], PeriodicSite: O (0.0, 1.952, 0.0) [0.0, 0.5, 0.0], PeriodicSite: O (0.0, 0.0, 1.952) [0.0, 0.0, 0.5]]",59.5057310357224,"[Element Sm, Element V, Element O, Element O, Element O]",False,True,-2.951449170250001,0.299045315499999,0.0
1696,mp,mp-510492.cif,Pu1 Rh3 C1,PuRh3C,P4/mmm,4.18414713,4.20821912,4.18396986,90.0,90.0,90.0,"(True, True, True)","[PeriodicSite: Pu (0.0, 0.0, 0.0) [0.0, 0.0, 0.0], PeriodicSite: Rh (0.0, 2.104, 2.092) [0.0, 0.5, 0.5], PeriodicSite: Rh (2.092, 2.104, 0.0) [0.5, 0.5, 0.0], PeriodicSite: Rh (2.092, 0.0, 2.092) [0.5, 0.0, 0.5], PeriodicSite: C (2.092, 2.104, 2.092) [0.5, 0.5, 0.5]]",73.67053777752288,"[Element Pu, Element Rh, Element Rh, Element Rh, Element C]",False,True,-0.2101249694999993,0.12076639049999827,0.0