,provider,id,Full_Formula,formula,space_group,a_lattice_param,b_lattice_param,c_lattice_param,aplha_degree,beta_degree,gamma_degree,pbc,sits,volume,species_at_sites,is_stable,is_magnetic,formation_energy,energy_above_hull,band_gap
970,mp,mp-510611.cif,La1 Co1 O3,LaCoO3,Pm-3m,4.445931,4.445931,4.445931,90.0,90.0,90.0,"(True, True, True)","[PeriodicSite: La (2.223, 2.223, 2.223) [0.5, 0.5, 0.5], PeriodicSite: Co (0.0, 0.0, 0.0) [0.0, 0.0, 0.0], PeriodicSite: O (2.223, 2.223, 0.0) [0.5, 0.5, 0.0], PeriodicSite: O (2.223, 0.0, 2.223) [0.5, 0.0, 0.5], PeriodicSite: O (0.0, 2.223, 2.223) [0.0, 0.5, 0.5]]",87.87961684788989,"[Element La, Element Co, Element O, Element O, Element O]",False,True,-1.1754340812500004,1.4302752179999993,0.0
971,mp,mp-19899.cif,Dy3 Sn1 C1,Dy3SnC,Pm-3m,4.87069979,4.87069979,4.87069979,90.0,90.0,90.0,"(True, True, True)","[PeriodicSite: Dy (2.435, 0.0, 2.435) [0.5, 0.0, 0.5], PeriodicSite: Dy (2.435, 2.435, 0.0) [0.5, 0.5, 0.0], PeriodicSite: Dy (0.0, 2.435, 2.435) [0.0, 0.5, 0.5], PeriodicSite: Sn (0.0, 0.0, 0.0) [-0.0, -0.0, -0.0], PeriodicSite: C (2.435, 2.435, 2.435) [0.5, 0.5, 0.5]]",115.55110070330097,"[Element Dy, Element Dy, Element Dy, Element Sn, Element C]",True,False,-0.6275317485000003,0.0,0.0
972,mp,mp-18770.cif,Y1 Cr1 O3,YCrO3,Pm-3m,3.853879,3.853879,3.853879,90.0,90.0,90.0,"(True, True, True)","[PeriodicSite: Y (0.0, 0.0, 0.0) [0.0, 0.0, 0.0], PeriodicSite: Cr (1.927, 1.927, 1.927) [0.5, 0.5, 0.5], PeriodicSite: O (1.927, 1.927, 0.0) [0.5, 0.5, 0.0], PeriodicSite: O (1.927, 0.0, 1.927) [0.5, 0.0, 0.5], PeriodicSite: O (0.0, 1.927, 1.927) [0.0, 0.5, 0.5]]",57.23928827956947,"[Element Y, Element Cr, Element O, Element O, Element O]",False,True,-2.8969925385833344,0.30330756549999904,1.7679
973,mp,mp-1207079.cif,Sr1 H3 Pd1,SrH3Pd,Pm-3m,3.82819304,3.82819304,3.82819304,90.0,90.0,90.0,"(True, True, True)","[PeriodicSite: Sr (1.914, 1.914, 1.914) [0.5, 0.5, 0.5], PeriodicSite: H (1.914, 0.0, 0.0) [0.5, 0.0, -0.0], PeriodicSite: H (0.0, 1.914, 0.0) [-0.0, 0.5, -0.0], PeriodicSite: H (0.0, 0.0, 1.914) [-0.0, 0.0, 0.5], PeriodicSite: Pd (0.0, 0.0, 0.0) [-0.0, 0.0, -0.0]]",56.10240616351812,"[Element Sr, Element H, Element H, Element H, Element Pd]",True,False,-0.5171315343333334,0.0,0.0
974,mp,mp-29676.cif,Dy3 Al1 C1,Dy3AlC,Pm-3m,4.8703325,4.8703325,4.8703325,90.0,90.0,90.0,"(True, True, True)","[PeriodicSite: Dy (0.0, 2.435, 2.435) [0.0, 0.5, 0.5], PeriodicSite: Dy (2.435, 0.0, 2.435) [0.5, 0.0, 0.5], PeriodicSite: Dy (2.435, 2.435, 0.0) [0.5, 0.5, 0.0], PeriodicSite: Al (0.0, 0.0, 0.0) [-0.0, -0.0, -0.0], PeriodicSite: C (2.435, 2.435, 2.435) [0.5, 0.5, 0.5]]",115.52496222301356,"[Element Dy, Element Dy, Element Dy, Element Al, Element C]",True,False,-0.3823015634999997,0.0,0.0
975,mp,mp-1207995.cif,Tl1 Cd1 N3,TlCdN3,Pm-3m,4.47241,4.47241,4.47241,90.0,90.0,90.0,"(True, True, True)","[PeriodicSite: Tl (2.236, 2.236, 2.236) [0.5, 0.5, 0.5], PeriodicSite: Cd (0.0, 0.0, 0.0) [0.0, 0.0, 0.0], PeriodicSite: N (2.236, 0.0, 0.0) [0.5, 0.0, 0.0], PeriodicSite: N (0.0, 2.236, 0.0) [0.0, 0.5, 0.0], PeriodicSite: N (0.0, 0.0, 2.236) [0.0, 0.0, 0.5]]",89.45916280761851,"[Element Tl, Element Cd, Element N, Element N, Element N]",False,True,1.8919076743333343,1.8919076743333343,0.0
976,mp,mp-1226313.cif,Cr1 Mo1 O3,CrMoO3,R3,3.9702682453622704,3.9702682453622704,3.970268471729966,80.63273246324442,80.63273246324442,80.63274194316406,"(True, True, True)","[PeriodicSite: Cr (5.524, 0.0, 3.105) [0.8004, 0.8004, 0.8004], PeriodicSite: Mo (1.325, 0.0, 0.7448) [0.192, 0.192, 0.192], PeriodicSite: O (5.391, -0.6431, 1.222) [0.9714, 0.721, 0.3151], PeriodicSite: O (3.96, -1.043, 3.768) [0.721, 0.3151, 0.9714], PeriodicSite: O (4.506, 1.686, 2.797) [0.3151, 0.9714, 0.721]]",60.32568395170272,"[Element Cr, Element Mo, Element O, Element O, Element O]",False,True,-1.6492598092500004,0.44449728624999985,0.0
977,mp,mp-545783.cif,Ba1 Bi1 O3,BaBiO3,Pm-3m,4.428113,4.428113,4.428113,90.0,90.0,90.0,"(True, True, True)","[PeriodicSite: Ba (2.214, 2.214, 2.214) [0.5, 0.5, 0.5], PeriodicSite: Bi (0.0, 0.0, 0.0) [0.0, 0.0, 0.0], PeriodicSite: O (0.0, 2.214, 0.0) [0.0, 0.5, 0.0], PeriodicSite: O (2.214, 0.0, 0.0) [0.5, 0.0, 0.0], PeriodicSite: O (0.0, 0.0, 2.214) [0.0, 0.0, 0.5]]",86.82725775700082,"[Element Ba, Element Bi, Element O, Element O, Element O]",False,False,-2.22288842125,0.021211002000000256,0.0
978,mp,mp-1421498.cif,Al1 Fe1 O3,AlFeO3,Pm-3m,3.801023,3.801023,3.801023,90.0,90.0,90.0,"(True, True, True)","[PeriodicSite: Al (0.0, 0.0, 0.0) [0.0, 0.0, 0.0], PeriodicSite: Fe (1.901, 1.901, 1.901) [0.5, 0.5, 0.5], PeriodicSite: O (1.901, 1.901, 0.0) [0.5, 0.5, 0.0], PeriodicSite: O (1.901, 0.0, 1.901) [0.5, 0.0, 0.5], PeriodicSite: O (0.0, 1.901, 1.901) [0.0, 0.5, 0.5]]",54.91632829150119,"[Element Al, Element Fe, Element O, Element O, Element O]",False,True,-1.16328956925,1.404294987499993,0.0
979,mp,mp-22537.cif,Er3 Sn1 C1,Er3SnC,Pm-3m,5.552727,5.552727,5.552727,90.0,90.0,90.0,"(True, True, True)","[PeriodicSite: Er (0.0, 2.776, 2.776) [0.0, 0.5, 0.5], PeriodicSite: Er (2.776, 0.0, 2.776) [0.5, 0.0, 0.5], PeriodicSite: Er (2.776, 2.776, 0.0) [0.5, 0.5, 0.0], PeriodicSite: Sn (2.776, 2.776, 2.776) [0.5, 0.5, 0.5], PeriodicSite: C (0.0, 0.0, 0.0) [0.0, 0.0, 0.0]]",171.20599409098728,"[Element Er, Element Er, Element Er, Element Sn, Element C]",False,False,1.4867146695000002,2.018977587,0.0
980,mp,mp-550506.cif,K1 Cl1 O3,KClO3,R3m,4.529572446804224,4.529572446804224,4.529572643726999,80.01503014214549,80.01503014214549,80.0150256354775,"(True, True, True)","[PeriodicSite: K (7.817, 0.0, 4.33) [0.9815, 0.9815, 0.9815], PeriodicSite: Cl (3.896, 0.0, 2.158) [0.4891, 0.4891, 0.4891], PeriodicSite: O (4.731, 1.212, 1.821) [0.4128, 0.8289, 0.4128], PeriodicSite: O (3.714, 0.0, 3.657) [0.4128, 0.4128, 0.8289], PeriodicSite: O (4.731, -1.212, 1.821) [0.8289, 0.4128, 0.4128]]",89.1498594092199,"[Element K, Element Cl, Element O, Element O, Element O]",False,False,-1.14262545785,0.061993357874999155,5.3358
981,mp,mp-1206983.cif,Ho3 Pb1 C1,Ho3PbC,Pm-3m,4.86345615,4.86345615,4.86345615,90.0,90.0,90.0,"(True, True, True)","[PeriodicSite: Ho (2.432, 0.0, 0.0) [0.5, 0.0, 0.0], PeriodicSite: Ho (0.0, 2.432, 0.0) [0.0, 0.5, 0.0], PeriodicSite: Ho (0.0, 0.0, 2.432) [0.0, 0.0, 0.5], PeriodicSite: Pb (2.432, 2.432, 2.432) [0.5, 0.5, 0.5], PeriodicSite: C (0.0, 0.0, 0.0) [0.0, 0.0, 0.0]]",115.03632884060738,"[Element Ho, Element Ho, Element Ho, Element Pb, Element C]",True,False,-0.5493245334999998,0.0,0.0
982,mp,mp-546973.cif,Sr1 Sn1 O3,SrSnO3,Pm-3m,4.114859,4.114859,4.114859,90.0,90.0,90.0,"(True, True, True)","[PeriodicSite: Sr (2.057, 2.057, 2.057) [0.5, 0.5, 0.5], PeriodicSite: Sn (0.0, 0.0, 0.0) [0.0, 0.0, 0.0], PeriodicSite: O (2.057, 0.0, 0.0) [0.5, 0.0, 0.0], PeriodicSite: O (0.0, 0.0, 2.057) [0.0, 0.0, 0.5], PeriodicSite: O (0.0, 2.057, 0.0) [0.0, 0.5, 0.0]]",69.67305836625314,"[Element Sr, Element Sn, Element O, Element O, Element O]",False,False,-2.5909741675833344,0.04773477349999933,0.9698000000000002
983,mp,mp-510381.cif,Fe3 Ni1 N1,Fe3NiN,Pm-3m,4.290839,4.290839,4.290839,90.0,90.0,90.0,"(True, True, True)","[PeriodicSite: Fe (0.0, 2.145, 2.145) [0.0, 0.5, 0.5], PeriodicSite: Fe (2.145, 2.145, 0.0) [0.5, 0.5, 0.0], PeriodicSite: Fe (2.145, 0.0, 2.145) [0.5, 0.0, 0.5], PeriodicSite: Ni (2.145, 2.145, 2.145) [0.5, 0.5, 0.5], PeriodicSite: N (0.0, 0.0, 0.0) [0.0, 0.0, 0.0]]",78.99992117975385,"[Element Fe, Element Fe, Element Fe, Element Ni, Element N]",False,True,1.7842068330000012,1.9373134574999993,0.0
984,mp,mp-31055.cif,Sc3 In1 N1,Sc3InN,Pm-3m,4.46445515,4.46445824,4.46445824,90.0,90.0,90.0,"(True, True, True)","[PeriodicSite: Sc (2.232, 2.232, 0.0) [0.5, 0.5, 0.0], PeriodicSite: Sc (2.232, 0.0, 2.232) [0.5, 0.0, 0.5], PeriodicSite: Sc (0.0, 2.232, 2.232) [-0.0, 0.5, 0.5], PeriodicSite: In (0.0, 0.0, 0.0) [0.0, -0.0, -0.0], PeriodicSite: N (2.232, 2.232, 2.232) [0.5, 0.5, 0.5]]",88.9827850205707,"[Element Sc, Element Sc, Element Sc, Element In, Element N]",True,False,-1.191894172,0.0,0.0
985,mp,mp-22394.cif,Th1 Ru3 C1,ThRu3C,Pm-3m,4.21281975,4.21281975,4.21281975,90.0,90.0,90.0,"(True, True, True)","[PeriodicSite: Th (0.0, 0.0, 0.0) [-0.0, -0.0, -0.0], PeriodicSite: Ru (0.0, 2.106, 2.106) [0.0, 0.5, 0.5], PeriodicSite: Ru (2.106, 2.106, 0.0) [0.5, 0.5, 0.0], PeriodicSite: Ru (2.106, 0.0, 2.106) [0.5, 0.0, 0.5], PeriodicSite: C (2.106, 2.106, 2.106) [0.5, 0.5, 0.5]]",74.76849403634931,"[Element Th, Element Ru, Element Ru, Element Ru, Element C]",True,False,-0.2897659094999995,0.0,0.0
986,mp,mp-20684.cif,Pr3 Al1 N1,Pr3AlN,Pm-3m,5.587362,5.587362,5.587362,90.0,90.0,90.0,"(True, True, True)","[PeriodicSite: Pr (0.0, 2.794, 2.794) [0.0, 0.5, 0.5], PeriodicSite: Pr (2.794, 0.0, 2.794) [0.5, 0.0, 0.5], PeriodicSite: Pr (2.794, 2.794, 0.0) [0.5, 0.5, 0.0], PeriodicSite: Al (2.794, 2.794, 2.794) [0.5, 0.5, 0.5], PeriodicSite: N (0.0, 0.0, 0.0) [0.0, 0.0, 0.0]]",174.4296982214099,"[Element Pr, Element Pr, Element Pr, Element Al, Element N]",False,False,1.0757222079999997,1.8612687919999997,0.0
987,mp,mp-21313.cif,Mn3 Ga1 C1,Mn3GaC,Pm-3m,3.97641365,3.97674201,3.9770618,90.0,90.0,90.0,"(True, True, True)","[PeriodicSite: Mn (0.0, 1.988, 1.989) [-0.0, 0.5, 0.5], PeriodicSite: Mn (1.988, 1.988, 0.0) [0.5, 0.5, 0.0], PeriodicSite: Mn (1.988, 0.0, 1.989) [0.5, 0.0, 0.5], PeriodicSite: Ga (0.0, 0.0, 0.0) [-0.0, 0.0, -0.0], PeriodicSite: C (1.988, 1.988, 1.989) [0.5, 0.5, 0.5]]",62.889959160495465,"[Element Mn, Element Mn, Element Mn, Element Ga, Element C]",True,True,-0.12013093075862144,0.0,0.0
988,mp,mp-558189.cif,Ag3 S1 I1,Ag3SI,Pm-3m,5.009586,5.009586,5.009586,90.0,90.0,90.0,"(True, True, True)","[PeriodicSite: Ag (2.505, 2.505, 0.0) [0.5, 0.5, 0.0], PeriodicSite: Ag (2.505, 0.0, 2.505) [0.5, 0.0, 0.5], PeriodicSite: Ag (0.0, 2.505, 2.505) [0.0, 0.5, 0.5], PeriodicSite: S (2.505, 2.505, 2.505) [0.5, 0.5, 0.5], PeriodicSite: I (0.0, 0.0, 0.0) [0.0, 0.0, 0.0]]",125.72032925181091,"[Element Ag, Element Ag, Element Ag, Element S, Element I]",False,False,-0.22743638462500043,0.1074298210000002,0.6242999999999999
989,mp,mp-19990.cif,Ba1 Ti1 O3,BaTiO3,P4/mmm,4.112467,4.112467,5.035613,90.0,90.0,90.0,"(True, True, True)","[PeriodicSite: Ba (0.0, 0.0, 0.0) [0.0, 0.0, 0.0], PeriodicSite: Ti (2.056, 2.056, 2.518) [0.5, 0.5, 0.5], PeriodicSite: O (0.0, 2.056, 2.518) [0.0, 0.5, 0.5], PeriodicSite: O (2.056, 0.0, 2.518) [0.5, 0.0, 0.5], PeriodicSite: O (0.0, 0.0, 2.518) [0.0, 0.0, 0.5]]",85.16422489125648,"[Element Ba, Element Ti, Element O, Element O, Element O]",False,False,-1.6855814899166668,1.8074188739999997,0.0
990,mp,mp-1426094.cif,Al1 Sn1 O3,AlSnO3,Pm-3m,4.036563,4.036563,4.036563,90.0,90.0,90.0,"(True, True, True)","[PeriodicSite: Al (0.0, 0.0, 0.0) [0.0, 0.0, 0.0], PeriodicSite: Sn (2.018, 2.018, 2.018) [0.5, 0.5, 0.5], PeriodicSite: O (2.018, 2.018, 0.0) [0.5, 0.5, 0.0], PeriodicSite: O (2.018, 0.0, 2.018) [0.5, 0.0, 0.5], PeriodicSite: O (0.0, 2.018, 2.018) [0.0, 0.5, 0.5]]",65.77111511498312,"[Element Al, Element Sn, Element O, Element O, Element O]",False,False,-1.35419614025,1.3186308561250035,0.0
991,mp,mp-1207000.cif,Dy1 Bi1 O3,DyBiO3,Pm-3m,4.422165,4.422165,4.422165,90.0,90.0,90.0,"(True, True, True)","[PeriodicSite: Dy (2.211, 2.211, 2.211) [0.5, 0.5, 0.5], PeriodicSite: Bi (0.0, 0.0, 0.0) [0.0, 0.0, 0.0], PeriodicSite: O (2.211, 0.0, 0.0) [0.5, 0.0, 0.0], PeriodicSite: O (0.0, 2.211, 0.0) [0.0, 0.5, 0.0], PeriodicSite: O (0.0, 0.0, 2.211) [0.0, 0.0, 0.5]]",86.47783908075132,"[Element Dy, Element Bi, Element O, Element O, Element O]",False,False,-1.6976553772500005,1.1387212700000022,0.0
992,mp,mp-1206990.cif,Sm3 Sn1 N1,Sm3SnN,Pm-3m,4.91656245,4.91656245,4.91656245,90.0,90.0,90.0,"(True, True, True)","[PeriodicSite: Sm (2.458, 0.0, 0.0) [0.5, -0.0, -0.0], PeriodicSite: Sm (0.0, 2.458, 0.0) [-0.0, 0.5, -0.0], PeriodicSite: Sm (0.0, 0.0, 2.458) [-0.0, 0.0, 0.5], PeriodicSite: Sn (2.458, 2.458, 2.458) [0.5, 0.5, 0.5], PeriodicSite: N (0.0, 0.0, 0.0) [-0.0, 0.0, -0.0]]",118.84603024364935,"[Element Sm, Element Sm, Element Sm, Element Sn, Element N]",True,False,-1.067038927,0.0,0.0
993,mp,mp-35683.cif,Na1 P1 F3,NaPF3,P1,5.191036,5.193018992721383,5.339904182729968,95.77567692074736,115.5700869871632,116.60938506755484,"(True, True, True)","[PeriodicSite: Na (2.732, 4.567, 0.1603) [0.989, 0.9971, 0.03573], PeriodicSite: P (3.066, 1.085, 2.198) [0.9959, 0.419, 0.49], PeriodicSite: F (-0.8656, 1.609, 3.371) [0.4494, 0.6306, 0.7514], PeriodicSite: F (1.732, 0.428, 1.175) [0.5357, 0.1912, 0.262], PeriodicSite: F (2.478, 0.1131, 3.413) [0.955, 0.3121, 0.7609]]",108.11031678827725,"[Element Na, Element P, Element F, Element F, Element F]",False,True,-2.2050730874770115,0.44869017639999775,0.9889000000000001
994,mp,mp-19328.cif,Na1 W1 O3,NaWO3,Pm-3m,3.969588,3.969588,3.969588,90.0,90.0,90.0,"(True, True, True)","[PeriodicSite: Na (1.985, 1.985, 1.985) [0.5, 0.5, 0.5], PeriodicSite: W (0.0, 0.0, 0.0) [0.0, 0.0, 0.0], PeriodicSite: O (1.985, 0.0, 0.0) [0.5, 0.0, 0.0], PeriodicSite: O (0.0, 1.985, 0.0) [0.0, 0.5, 0.0], PeriodicSite: O (0.0, 0.0, 1.985) [0.0, 0.0, 0.5]]",62.5512945491811,"[Element Na, Element W, Element O, Element O, Element O]",False,True,-2.111564838560345,0.05530045630435243,0.0
995,mp,mp-562987.cif,V1 Cu1 O3,VCuO3,P1,3.222381,5.010254466839484,5.532574663121773,111.11934689630226,105.33184345054806,89.10338145792896,"(True, True, True)","[PeriodicSite: V (-2.227, -1.457, 0.6776) [0.7446, 0.3446, 0.1367], PeriodicSite: Cu (-0.6434, -3.924, 2.189) [0.3768, 0.9569, 0.4415], PeriodicSite: O (-2.221, 0.1688, 1.22) [0.7996, 0.06312, 0.2461], PeriodicSite: O (-0.7633, 0.5117, 3.956) [0.5939, 0.2117, 0.7978], PeriodicSite: O (-0.6144, -2.191, 1.268) [0.2937, 0.538, 0.2558]]",80.04269880900075,"[Element V, Element Cu, Element O, Element O, Element O]",False,False,-1.7847629432500014,0.08128382899999753,0.8024
996,mp,mp-2647018.cif,Pm1 Ti1 O3,PmTiO3,P1,3.9201020689585366,3.920489043387572,3.9201620542290083,90.00944235042832,89.98357129054197,90.01410430661892,"(True, True, True)","[PeriodicSite: Pm (3.916, 3.919, 0.000699) [0.9991, 0.9998, 0.000119], PeriodicSite: Ti (1.958, 1.934, 1.967) [0.4996, 0.4935, 0.5016], PeriodicSite: O (3.919, 1.925, 1.97) [0.9996, 0.4912, 0.5025], PeriodicSite: O (1.955, 3.893, 1.967) [0.4988, 0.9931, 0.5019], PeriodicSite: O (1.963, 1.925, 0.007) [0.5007, 0.4912, 0.001755]]",60.247856910458616,"[Element Pm, Element Ti, Element O, Element O, Element O]",False,False,-3.4610597094166664,0.10947393274999939,0.0
997,mp,mp-1227962.cif,Ba1 Cd3 Ga1,BaCd3Ga,I4mm,6.754915387237158,6.754915387237158,6.754915387237158,138.3921325783688,138.3921325783688,60.302957128849116,"(True, True, True)","[PeriodicSite: Ba (0.0, 0.0, 0.04426) [0.003789, 0.003789, -0.0], PeriodicSite: Cd (-2.22e-16, 2.399, 2.844) [0.7435, 0.2435, 0.5], PeriodicSite: Cd (2.399, -2.22e-16, 2.844) [0.2435, 0.7435, 0.5], PeriodicSite: Cd (0.0, 0.0, 4.53) [0.3878, 0.3878, 0.0], PeriodicSite: Ga (0.0, 0.0, 7.26) [0.6215, 0.6215, -0.0]]",134.48095271220126,"[Element Ba, Element Cd, Element Cd, Element Cd, Element Ga]",False,False,-0.29669467949999984,0.0010694489999998336,0.0
998,mp,mp-1215459.cif,Yb1 Al3 Au1,YbAl3Au,I4mm,6.502874523356213,6.502874523356213,6.502874523356213,143.06373167455172,143.06373167455172,53.229670398704634,"(True, True, True)","[PeriodicSite: Yb (0.0, 0.0, 0.06744) [0.0058, 0.0058, 0.0], PeriodicSite: Al (2.22e-16, 2.06, 2.875) [0.7473, 0.2473, 0.5], PeriodicSite: Al (2.06, 2.22e-16, 2.875) [0.2473, 0.7473, 0.5], PeriodicSite: Al (0.0, 0.0, 4.557) [0.3919, 0.3919, -0.0], PeriodicSite: Au (0.0, 0.0, 7.066) [0.6077, 0.6077, 0.0]]",98.68247015582989,"[Element Yb, Element Al, Element Al, Element Al, Element Au]",True,False,-0.5145279600000002,0.0,0.0
999,mp,mp-1225128.cif,Eu1 Ga3 Ag1,EuGa3Ag,I-4m2,6.245589545366521,6.245589545366521,6.245589545366521,139.53235318264032,139.53235318264032,58.564046667543195,"(True, True, True)","[PeriodicSite: Eu (0.0, 0.0, 0.0) [0.0, 0.0, 0.0], PeriodicSite: Ga (0.0, 0.0, 6.691) [0.6141, 0.6141, -0.0], PeriodicSite: Ga (0.0, 0.0, 4.204) [0.3859, 0.3859, 0.0], PeriodicSite: Ga (2.22e-16, 2.16, 2.724) [0.75, 0.25, 0.5], PeriodicSite: Ag (2.16, 2.22e-16, 2.724) [0.25, 0.75, 0.5]]",101.66903805873173,"[Element Eu, Element Ga, Element Ga, Element Ga, Element Ag]",True,True,-0.4178874798333325,0.0,0.0
1000,mp,mp-935811.cif,K1 Nb1 O3,KNbO3,Pm-3m,4.02918278,4.02918278,4.02918278,90.0,90.0,90.0,"(True, True, True)","[PeriodicSite: K (0.0, 0.0, 0.0) [-0.0, -0.0, -0.0], PeriodicSite: Nb (2.015, 2.015, 2.015) [0.5, 0.5, 0.5], PeriodicSite: O (0.0, 2.015, 2.015) [0.0, 0.5, 0.5], PeriodicSite: O (2.015, 0.0, 2.015) [0.5, -0.0, 0.5], PeriodicSite: O (2.015, 2.015, 0.0) [0.5, 0.5, -0.0]]",65.41101790884895,"[Element K, Element Nb, Element O, Element O, Element O]",False,False,-2.84417145985,0.01291375200000111,1.4120999999999997
1001,mp,mp-752649.cif,Sr1 Ni1 O3,SrNiO3,C2,3.8539274220592166,3.8539274220592166,3.8393260732550445,89.99210117201697,89.99210117201697,90.22416770921308,"(True, True, True)","[PeriodicSite: Sr (0.01025, 2.72, 0.0) [0.5019, 0.4981, 0.0], PeriodicSite: Ni (2.683, 2.72, 1.92) [0.9913, 0.008679, 0.5], PeriodicSite: O (-1.338, 4.091, 1.992) [0.5071, 0.997, 0.5188], PeriodicSite: O (-1.338, 1.349, 1.848) [0.003048, 0.4929, 0.4812], PeriodicSite: O (-2.646, 2.72, 0.0) [0.01549, 0.9845, 0.0]]",57.02413804031096,"[Element Sr, Element Ni, Element O, Element O, Element O]",False,True,-1.7413187285833338,0.06995317500000198,0.0
1002,mp,mp-975255.cif,Rb1 Pd1 O3,RbPdO3,Pm-3m,4.128309,4.128309,4.128309,90.0,90.0,90.0,"(True, True, True)","[PeriodicSite: Rb (2.064, 2.064, 2.064) [0.5, 0.5, 0.5], PeriodicSite: Pd (0.0, 0.0, 0.0) [0.0, 0.0, 0.0], PeriodicSite: O (0.0, 0.0, 2.064) [0.0, 0.0, 0.5], PeriodicSite: O (0.0, 2.064, 0.0) [0.0, 0.5, 0.0], PeriodicSite: O (2.064, 0.0, 0.0) [0.5, 0.0, 0.0]]",70.35850277043419,"[Element Rb, Element Pd, Element O, Element O, Element O]",False,True,-0.7748740427499996,0.1556027990000004,0.0
1003,mp,mp-7166.cif,Pr3 Tl1 C1,Pr3TlC,Pm-3m,5.871802,5.871802,5.871802,90.0,90.0,90.0,"(True, True, True)","[PeriodicSite: Pr (0.0, 2.936, 2.936) [0.0, 0.5, 0.5], PeriodicSite: Pr (2.936, 2.936, 0.0) [0.5, 0.5, 0.0], PeriodicSite: Pr (2.936, 0.0, 2.936) [0.5, 0.0, 0.5], PeriodicSite: Tl (2.936, 2.936, 2.936) [0.5, 0.5, 0.5], PeriodicSite: C (0.0, 0.0, 0.0) [0.0, 0.0, 0.0]]",202.44833419051386,"[Element Pr, Element Pr, Element Pr, Element Tl, Element C]",False,False,1.5908076588333337,1.808493323,0.0
1004,mp,mp-973958.cif,K1 Ru1 O3,KRuO3,Pm-3m,3.939277,3.939277,3.939277,90.0,90.0,90.0,"(True, True, True)","[PeriodicSite: K (1.97, 1.97, 1.97) [0.5, 0.5, 0.5], PeriodicSite: Ru (0.0, 0.0, 0.0) [0.0, 0.0, 0.0], PeriodicSite: O (0.0, 0.0, 1.97) [0.0, 0.0, 0.5], PeriodicSite: O (0.0, 1.97, 0.0) [0.0, 0.5, 0.0], PeriodicSite: O (1.97, 0.0, 0.0) [0.5, 0.0, 0.0]]",61.12931948987885,"[Element K, Element Ru, Element O, Element O, Element O]",False,False,-1.53793592985,0.10410775574999587,0.0
1005,mp,mp-984454.cif,K1 Tl1 O3,KTlO3,Pm-3m,4.410647,4.410647,4.410647,90.0,90.0,90.0,"(True, True, True)","[PeriodicSite: K (0.0, 0.0, 0.0) [0.0, 0.0, 0.0], PeriodicSite: Tl (2.205, 2.205, 2.205) [0.5, 0.5, 0.5], PeriodicSite: O (2.205, 2.205, 0.0) [0.5, 0.5, 0.0], PeriodicSite: O (2.205, 0.0, 2.205) [0.5, 0.0, 0.5], PeriodicSite: O (0.0, 2.205, 2.205) [0.0, 0.5, 0.5]]",85.80387530056791,"[Element K, Element Tl, Element O, Element O, Element O]",False,True,-0.8016466025166664,0.3331176690000026,0.0
1006,mp,mp-5878.cif,K1 Zn1 F3,KZnF3,Pm-3m,4.04741679,4.04741679,4.04741679,90.0,90.0,90.0,"(True, True, True)","[PeriodicSite: K (0.0, 0.0, 0.0) [-0.0, 0.0, -0.0], PeriodicSite: Zn (2.024, 2.024, 2.024) [0.5, 0.5, 0.5], PeriodicSite: F (0.0, 2.024, 2.024) [0.0, 0.5, 0.5], PeriodicSite: F (2.024, 0.0, 2.024) [0.5, -0.0, 0.5], PeriodicSite: F (2.024, 2.024, 0.0) [0.5, 0.5, 0.0]]",66.30309275332023,"[Element K, Element Zn, Element F, Element F, Element F]",True,False,-2.8179999301,0.0,3.6954000000000002