,provider,id,Full_Formula,formula,space_group,a_lattice_param,b_lattice_param,c_lattice_param,aplha_degree,beta_degree,gamma_degree,pbc,sits,volume,species_at_sites,is_stable,is_magnetic,formation_energy,energy_above_hull,band_gap
188,mp,mp-1206518.cif,Rb1 Fe1 Cl3,RbFeCl3,Pm-3m,4.93010805,4.93013288,4.93012564,90.0,90.0,90.0,"(True, True, True)","[PeriodicSite: Rb (2.465, 2.465, 2.465) [0.5, 0.5, 0.5], PeriodicSite: Fe (0.0, 0.0, 0.0) [-0.0, 0.0, -0.0], PeriodicSite: Cl (2.465, 0.0, 0.0) [0.5, -0.0, -0.0], PeriodicSite: Cl (0.0, 2.465, 0.0) [0.0, 0.5, -0.0], PeriodicSite: Cl (0.0, 0.0, 2.465) [-0.0, -0.0, 0.5]]",119.83206666721149,"[Element Rb, Element Fe, Element Cl, Element Cl, Element Cl]",False,True,-1.5481723734999995,0.07070302500000025,0.0
189,mp,mp-1016826.cif,Mg1 Ir1 O3,MgIrO3,Pm-3m,3.921368,3.921368,3.921368,90.0,90.0,90.0,"(True, True, True)","[PeriodicSite: Mg (0.0, 0.0, 0.0) [0.0, 0.0, 0.0], PeriodicSite: Ir (1.961, 1.961, 1.961) [0.5, 0.5, 0.5], PeriodicSite: O (1.961, 1.961, 0.0) [0.5, 0.5, 0.0], PeriodicSite: O (1.961, 0.0, 1.961) [0.5, 0.0, 0.5], PeriodicSite: O (0.0, 1.961, 1.961) [0.0, 0.5, 0.5]]",60.29937371610635,"[Element Mg, Element Ir, Element O, Element O, Element O]",False,True,-1.1948353952499993,0.7838253470000041,0.0
190,mp,mp-1183283.cif,Ba1 Al1 O3,BaAlO3,Pm-3m,3.956853,3.956853,3.956853,90.0,90.0,90.0,"(True, True, True)","[PeriodicSite: Ba (0.0, 0.0, 0.0) [0.0, 0.0, 0.0], PeriodicSite: Al (1.978, 1.978, 1.978) [0.5, 0.5, 0.5], PeriodicSite: O (1.978, 1.978, 0.0) [0.5, 0.5, 0.0], PeriodicSite: O (1.978, 0.0, 1.978) [0.5, 0.0, 0.5], PeriodicSite: O (0.0, 1.978, 1.978) [0.0, 0.5, 0.5]]",61.951203638108275,"[Element Ba, Element Al, Element O, Element O, Element O]",False,True,-2.8961656272500007,0.16936120075000005,0.0
191,mp,mp-1183310.cif,Ba1 Eu1 O3,BaEuO3,Pm-3m,4.437278,4.437278,4.437278,90.0,90.0,90.0,"(True, True, True)","[PeriodicSite: Ba (0.0, 0.0, 0.0) [0.0, 0.0, 0.0], PeriodicSite: Eu (2.219, 2.219, 2.219) [0.5, 0.5, 0.5], PeriodicSite: O (2.219, 2.219, 0.0) [0.5, 0.5, 0.0], PeriodicSite: O (2.219, 0.0, 2.219) [0.5, 0.0, 0.5], PeriodicSite: O (0.0, 2.219, 2.219) [0.0, 0.5, 0.5]]",87.36750141389481,"[Element Ba, Element Eu, Element O, Element O, Element O]",False,True,-2.78027440725,0.03530904950000924,0.0
192,mp,mp-1016903.cif,Cd1 Ge1 O3,CdGeO3,Pm-3m,3.78249,3.78249,3.78249,90.0,90.0,90.0,"(True, True, True)","[PeriodicSite: Cd (0.0, 0.0, 0.0) [0.0, 0.0, 0.0], PeriodicSite: Ge (1.891, 1.891, 1.891) [0.5, 0.5, 0.5], PeriodicSite: O (1.891, 1.891, 0.0) [0.5, 0.5, 0.0], PeriodicSite: O (1.891, 0.0, 1.891) [0.5, 0.0, 0.5], PeriodicSite: O (0.0, 1.891, 1.891) [0.0, 0.5, 0.5]]",54.11695667257225,"[Element Cd, Element Ge, Element O, Element O, Element O]",False,False,-1.56402776025,0.3024235816250078,0.10220000000000073
193,mp,mp-10279.cif,Ho3 Ga1 C1,Ho3GaC,Pm-3m,5.274446,5.274446,5.274446,90.0,90.0,90.0,"(True, True, True)","[PeriodicSite: Ho (0.0, 2.637, 2.637) [0.0, 0.5, 0.5], PeriodicSite: Ho (2.637, 0.0, 2.637) [0.5, 0.0, 0.5], PeriodicSite: Ho (2.637, 2.637, 0.0) [0.5, 0.5, 0.0], PeriodicSite: Ga (2.637, 2.637, 2.637) [0.5, 0.5, 0.5], PeriodicSite: C (0.0, 0.0, 0.0) [0.0, 0.0, 0.0]]",146.73393054302568,"[Element Ho, Element Ho, Element Ho, Element Ga, Element C]",False,False,1.1875562349999995,1.618684529000002,0.0
194,mp,mp-1110999.cif,Rb1 Au1 Br3,RbAuBr3,Pm-3m,5.43699,5.43699,5.43699,90.0,90.0,90.0,"(True, True, True)","[PeriodicSite: Rb (2.718, 2.718, 2.718) [0.5, 0.5, 0.5], PeriodicSite: Au (0.0, 0.0, 0.0) [0.0, 0.0, 0.0], PeriodicSite: Br (2.718, 0.0, 0.0) [0.5, 0.0, 0.0], PeriodicSite: Br (0.0, 0.0, 2.718) [0.0, 0.0, 0.5], PeriodicSite: Br (0.0, 2.718, 0.0) [0.0, 0.5, 0.0]]",160.72210162556107,"[Element Rb, Element Au, Element Br, Element Br, Element Br]",False,False,-1.1892524115,0.04629739300000013,0.0
195,mp,mp-1016846.cif,Ti1 Cd1 O3,TiCdO3,Pm-3m,3.886978,3.886978,3.886978,90.0,90.0,90.0,"(True, True, True)","[PeriodicSite: Ti (1.943, 1.943, 1.943) [0.5, 0.5, 0.5], PeriodicSite: Cd (0.0, 0.0, 0.0) [0.0, 0.0, 0.0], PeriodicSite: O (1.943, 1.943, 0.0) [0.5, 0.5, 0.0], PeriodicSite: O (1.943, 0.0, 1.943) [0.5, 0.0, 0.5], PeriodicSite: O (0.0, 1.943, 1.943) [0.0, 0.5, 0.5]]",58.726787929889916,"[Element Ti, Element Cd, Element O, Element O, Element O]",False,False,-2.4814123899166667,0.19823604300000053,0.0
196,mp,mp-1184491.cif,Gd1 Th1 O3,GdThO3,Pm-3m,4.58893,4.58893,4.58893,90.0,90.0,90.0,"(True, True, True)","[PeriodicSite: Gd (0.0, 0.0, 0.0) [0.0, 0.0, 0.0], PeriodicSite: Th (2.294, 2.294, 2.294) [0.5, 0.5, 0.5], PeriodicSite: O (2.294, 2.294, 0.0) [0.5, 0.5, 0.0], PeriodicSite: O (2.294, 0.0, 2.294) [0.5, 0.0, 0.5], PeriodicSite: O (0.0, 2.294, 2.294) [0.0, 0.5, 0.5]]",96.63496616304798,"[Element Gd, Element Th, Element O, Element O, Element O]",False,True,-3.1387145672499996,0.7811935103333347,0.0
197,mp,mp-1016851.cif,Hg1 Ru1 O3,HgRuO3,Pm-3m,3.944331,3.944331,3.944331,90.0,90.0,90.0,"(True, True, True)","[PeriodicSite: Hg (0.0, 0.0, 0.0) [0.0, 0.0, 0.0], PeriodicSite: Ru (1.972, 1.972, 1.972) [0.5, 0.5, 0.5], PeriodicSite: O (1.972, 1.972, 0.0) [0.5, 0.5, 0.0], PeriodicSite: O (1.972, 0.0, 1.972) [0.5, 0.0, 0.5], PeriodicSite: O (0.0, 1.972, 1.972) [0.0, 0.5, 0.5]]",61.36490393041002,"[Element Hg, Element Ru, Element O, Element O, Element O]",False,False,-0.8291090902499996,0.30147275250000494,0.0
198,mp,mp-1183715.cif,Co1 Rh1 O3,CoRhO3,Pm-3m,3.89383,3.89383,3.89383,90.0,90.0,90.0,"(True, True, True)","[PeriodicSite: Co (0.0, 0.0, 0.0) [0.0, 0.0, 0.0], PeriodicSite: Rh (1.947, 1.947, 1.947) [0.5, 0.5, 0.5], PeriodicSite: O (1.947, 1.947, 0.0) [0.5, 0.5, 0.0], PeriodicSite: O (1.947, 0.0, 1.947) [0.5, 0.0, 0.5], PeriodicSite: O (0.0, 1.947, 1.947) [0.0, 0.5, 0.5]]",59.037908071244885,"[Element Co, Element Rh, Element O, Element O, Element O]",False,True,-0.44900111225000006,0.7968873444999973,0.0
199,mp,mp-1183447.cif,Be1 Pd1 O3,BePdO3,Pm-3m,3.498451,3.498451,3.498451,90.0,90.0,90.0,"(True, True, True)","[PeriodicSite: Be (1.749, 1.749, 1.749) [0.5, 0.5, 0.5], PeriodicSite: Pd (0.0, 0.0, 0.0) [0.0, 0.0, 0.0], PeriodicSite: O (1.749, 1.749, 0.0) [0.5, 0.5, 0.0], PeriodicSite: O (1.749, 0.0, 1.749) [0.5, 0.0, 0.5], PeriodicSite: O (0.0, 1.749, 1.749) [0.0, 0.5, 0.5]]",42.81809943999384,"[Element Be, Element Pd, Element O, Element O, Element O]",False,False,-0.8508348022500002,0.8275869359999994,0.0
200,mp,mp-1013545.cif,Ca3 Bi1 As1,Ca3BiAs,Pm-3m,5.53,5.53,5.53,90.0,90.0,90.0,"(True, True, True)","[PeriodicSite: Ca (0.0, 2.765, 2.765) [0.0, 0.5, 0.5], PeriodicSite: Ca (2.765, 0.0, 2.765) [0.5, 0.0, 0.5], PeriodicSite: Ca (2.765, 2.765, 0.0) [0.5, 0.5, 0.0], PeriodicSite: Bi (0.0, 0.0, 0.0) [0.0, 0.0, 0.0], PeriodicSite: As (2.765, 2.765, 2.765) [0.5, 0.5, 0.5]]",169.11237700000004,"[Element Ca, Element Ca, Element Ca, Element Bi, Element As]",False,False,-0.9115727249999999,0.08783324849999996,0.0
201,mp,mp-1076820.cif,Mg1 Co1 O3,MgCoO3,Pm-3m,3.697531,3.697531,3.697531,90.0,90.0,90.0,"(True, True, True)","[PeriodicSite: Mg (1.849, 1.849, 1.849) [0.5, 0.5, 0.5], PeriodicSite: Co (0.0, 0.0, 0.0) [0.0, 0.0, 0.0], PeriodicSite: O (1.849, 0.0, 0.0) [0.5, 0.0, 0.0], PeriodicSite: O (0.0, 1.849, 0.0) [0.0, 0.5, 0.0], PeriodicSite: O (0.0, 0.0, 1.849) [0.0, 0.0, 0.5]]",50.55166582011618,"[Element Mg, Element Co, Element O, Element O, Element O]",False,True,-1.3528671842500004,0.5512885471250009,0.0
202,mp,mp-1186557.cif,Pm1 Er1 O3,PmErO3,Pm-3m,4.266351,4.266351,4.266351,90.0,90.0,90.0,"(True, True, True)","[PeriodicSite: Pm (0.0, 0.0, 0.0) [0.0, 0.0, 0.0], PeriodicSite: Er (2.133, 2.133, 2.133) [0.5, 0.5, 0.5], PeriodicSite: O (2.133, 2.133, 0.0) [0.5, 0.5, 0.0], PeriodicSite: O (2.133, 0.0, 2.133) [0.5, 0.0, 0.5], PeriodicSite: O (0.0, 2.133, 2.133) [0.0, 0.5, 0.5]]",77.65505796283766,"[Element Pm, Element Er, Element O, Element O, Element O]",False,False,-3.31228451675,0.63507635675,1.6957999999999998
203,mp,mp-1070137.cif,Ba1 Si3 Pd1,BaSi3Pd,I4mm,4.43020383,4.43020383,6.001889522094713,111.6581144542038,111.6581144542038,90.0,"(True, True, True)","[PeriodicSite: Ba (2.215, 2.215, 1.182) [0.6155, 0.6155, 0.2309], PeriodicSite: Si (6.115e-12, 6.115e-12, 0.006261) [0.0006115, 0.0006115, 0.001223], PeriodicSite: Si (2.215, -2.189e-06, 3.78) [0.8692, 0.3692, 0.7383], PeriodicSite: Si (-2.189e-06, 2.215, 3.78) [0.3692, 0.8692, 0.7383], PeriodicSite: Pd (2.477e-08, 2.477e-08, 2.685) [0.2623, 0.2623, 0.5245]]",100.47900681322531,"[Element Ba, Element Si, Element Si, Element Si, Element Pd]",True,False,-0.4361977440000004,0.0,0.0
204,mp,mp-10271.cif,Zn1 Co3 C1,ZnCo3C,Pm-3m,3.72687582,3.72706281,3.72692445,90.0,90.0,90.0,"(True, True, True)","[PeriodicSite: Zn (0.0, 0.0, 0.0) [-0.0, -0.0, 0.0], PeriodicSite: Co (0.0, 1.864, 1.863) [-0.0, 0.5, 0.5], PeriodicSite: Co (1.863, 1.864, 0.0) [0.5, 0.5, 0.0], PeriodicSite: Co (1.863, 0.0, 1.863) [0.5, -0.0, 0.5], PeriodicSite: C (1.863, 1.864, 1.863) [0.5, 0.5, 0.5]]",51.76809967998051,"[Element Zn, Element Co, Element Co, Element Co, Element C]",False,True,-0.01730121849999975,0.006006705318180927,0.0
205,mp,mp-1206415.cif,Mg1 Ni3 B1,MgNi3B,Pm-3m,3.862388,3.862388,3.862388,90.0,90.0,90.0,"(True, True, True)","[PeriodicSite: Mg (1.931, 1.931, 1.931) [0.5, 0.5, 0.5], PeriodicSite: Ni (1.931, 0.0, 0.0) [0.5, 0.0, 0.0], PeriodicSite: Ni (0.0, 1.931, 0.0) [0.0, 0.5, 0.0], PeriodicSite: Ni (0.0, 0.0, 1.931) [0.0, 0.0, 0.5], PeriodicSite: B (0.0, 0.0, 0.0) [0.0, 0.0, 0.0]]",57.6192627834772,"[Element Mg, Element Ni, Element Ni, Element Ni, Element B]",False,True,-0.2718088918333329,0.04329892715530281,0.0
206,mp,mp-10060.cif,Dy1 B1 Pd3,DyBPd3,Pm-3m,4.319571,4.319571,4.319571,90.0,90.0,90.0,"(True, True, True)","[PeriodicSite: Dy (0.0, 0.0, 0.0) [0.0, 0.0, 0.0], PeriodicSite: B (2.16, 2.16, 2.16) [0.5, 0.5, 0.5], PeriodicSite: Pd (0.0, 2.16, 2.16) [0.0, 0.5, 0.5], PeriodicSite: Pd (2.16, 2.16, 0.0) [0.5, 0.5, 0.0], PeriodicSite: Pd (2.16, 0.0, 2.16) [0.5, 0.0, 0.5]]",80.5975518762924,"[Element Dy, Element B, Element Pd, Element Pd, Element Pd]",False,False,-0.6251817278333334,0.11293425036363747,0.0
207,mp,mp-1183417.cif,Be1 Ag1 O3,BeAgO3,Pm-3m,3.568391,3.568391,3.568391,90.0,90.0,90.0,"(True, True, True)","[PeriodicSite: Be (0.0, 0.0, 0.0) [0.0, 0.0, 0.0], PeriodicSite: Ag (1.784, 1.784, 1.784) [0.5, 0.5, 0.5], PeriodicSite: O (0.0, 0.0, 1.784) [0.0, 0.0, 0.5], PeriodicSite: O (0.0, 1.784, 0.0) [0.0, 0.5, 0.0], PeriodicSite: O (1.784, 0.0, 0.0) [0.5, 0.0, 0.0]]",45.43780109045,"[Element Be, Element Ag, Element O, Element O, Element O]",False,False,-0.780691895583334,0.650462044166666,0.0
208,mp,mp-1207245.cif,La1 Ni1 Ge3,LaNiGe3,I4mm,4.402065011876857,4.402063041867836,5.756151096904576,112.50151741355475,112.50163046495354,89.9510354667302,"(True, True, True)","[PeriodicSite: La (2.201, 2.201, 0.6981) [0.5719, 0.5719, 0.1442], PeriodicSite: Ni (0.001986, 0.001991, 2.268) [0.2347, 0.2347, 0.4686], PeriodicSite: Ge (-0.0007024, 2.202, 3.196) [0.3298, 0.8304, 0.6603], PeriodicSite: Ge (2.202, -0.000702, 3.196) [0.8304, 0.3298, 0.6603], PeriodicSite: Ge (2.201, 2.201, 4.755) [0.991, 0.991, 0.9823]]",93.81064214566747,"[Element La, Element Ni, Element Ge, Element Ge, Element Ge]",True,False,-0.6282166740000001,0.0,0.0
209,mp,mp-1183790.cif,Dy1 Pa1 O3,DyPaO3,Pm-3m,4.308022,4.308022,4.308022,90.0,90.0,90.0,"(True, True, True)","[PeriodicSite: Dy (0.0, 0.0, 0.0) [0.0, 0.0, 0.0], PeriodicSite: Pa (2.154, 2.154, 2.154) [0.5, 0.5, 0.5], PeriodicSite: O (0.0, 0.0, 2.154) [0.0, 0.0, 0.5], PeriodicSite: O (0.0, 2.154, 0.0) [0.0, 0.5, 0.0], PeriodicSite: O (2.154, 0.0, 0.0) [0.5, 0.0, 0.0]]",79.95281100327924,"[Element Dy, Element Pa, Element O, Element O, Element O]",False,True,-2.83042054725,0.9898081130000023,0.0
210,mp,mp-1184625.cif,Hf1 B1 O3,HfBO3,Pm-3m,3.425085,3.425085,3.425085,90.0,90.0,90.0,"(True, True, True)","[PeriodicSite: Hf (0.0, 0.0, 0.0) [0.0, 0.0, 0.0], PeriodicSite: B (1.713, 1.713, 1.713) [0.5, 0.5, 0.5], PeriodicSite: O (1.713, 1.713, 0.0) [0.5, 0.5, 0.0], PeriodicSite: O (1.713, 0.0, 1.713) [0.5, 0.0, 0.5], PeriodicSite: O (0.0, 1.713, 1.713) [0.0, 0.5, 0.5]]",40.1803820086125,"[Element Hf, Element B, Element O, Element O, Element O]",False,False,-2.0223048150833334,1.3355054685000045,0.0
211,mp,mp-1187352.cif,Tb1 Ni1 O3,TbNiO3,Pm-3m,3.738698,3.738698,3.738698,90.0,90.0,90.0,"(True, True, True)","[PeriodicSite: Tb (0.0, 0.0, 0.0) [0.0, 0.0, 0.0], PeriodicSite: Ni (1.869, 1.869, 1.869) [0.5, 0.5, 0.5], PeriodicSite: O (1.869, 1.869, 0.0) [0.5, 0.5, 0.0], PeriodicSite: O (1.869, 0.0, 1.869) [0.5, 0.0, 0.5], PeriodicSite: O (0.0, 1.869, 1.869) [0.0, 0.5, 0.5]]",52.25900745238172,"[Element Tb, Element Ni, Element O, Element O, Element O]",False,True,-2.2961821492499994,0.19866850399999958,0.0
212,mp,mp-1184736.cif,Ho1 Cu1 O3,HoCuO3,Pm-3m,3.765209,3.765209,3.765209,90.0,90.0,90.0,"(True, True, True)","[PeriodicSite: Ho (0.0, 0.0, 0.0) [0.0, 0.0, 0.0], PeriodicSite: Cu (1.883, 1.883, 1.883) [0.5, 0.5, 0.5], PeriodicSite: O (1.883, 1.883, 0.0) [0.5, 0.5, 0.0], PeriodicSite: O (1.883, 0.0, 1.883) [0.5, 0.0, 0.5], PeriodicSite: O (0.0, 1.883, 1.883) [0.0, 0.5, 0.5]]",53.37861048446102,"[Element Ho, Element Cu, Element O, Element O, Element O]",False,False,-2.21809051925,0.2523663390000017,0.0
213,mp,mp-1187347.cif,Tb1 Mg1 O3,TbMgO3,Pm-3m,3.856457,3.856457,3.856457,90.0,90.0,90.0,"(True, True, True)","[PeriodicSite: Tb (0.0, 0.0, 0.0) [0.0, 0.0, 0.0], PeriodicSite: Mg (1.928, 1.928, 1.928) [0.5, 0.5, 0.5], PeriodicSite: O (1.928, 1.928, 0.0) [0.5, 0.5, 0.0], PeriodicSite: O (1.928, 0.0, 1.928) [0.5, 0.0, 0.5], PeriodicSite: O (0.0, 1.928, 1.928) [0.0, 0.5, 0.5]]",57.35423346911667,"[Element Tb, Element Mg, Element O, Element O, Element O]",False,True,-2.7647931872500005,0.4489946620000005,0.0
214,mp,mp-1184411.cif,Eu1 Mo1 O3,EuMoO3,Pm-3m,4.100221,4.100221,4.100221,90.0,90.0,90.0,"(True, True, True)","[PeriodicSite: Eu (0.0, 0.0, 0.0) [0.0, 0.0, 0.0], PeriodicSite: Mo (2.05, 2.05, 2.05) [0.5, 0.5, 0.5], PeriodicSite: O (2.05, 2.05, 0.0) [0.5, 0.5, 0.0], PeriodicSite: O (2.05, 0.0, 2.05) [0.5, 0.0, 0.5], PeriodicSite: O (0.0, 2.05, 2.05) [0.0, 0.5, 0.5]]",68.93214563075512,"[Element Eu, Element Mo, Element O, Element O, Element O]",False,True,-2.4896115112499997,0.10553948038461947,0.0
215,mp,mp-1017557.cif,Dy3 Al1 N1,Dy3AlN,Pm-3m,4.75093043,4.75093043,4.75093043,90.0,90.0,90.0,"(True, True, True)","[PeriodicSite: Dy (2.375, 2.375, 0.0) [0.5, 0.5, -0.0], PeriodicSite: Dy (2.375, 0.0, 2.375) [0.5, -0.0, 0.5], PeriodicSite: Dy (0.0, 2.375, 2.375) [-0.0, 0.5, 0.5], PeriodicSite: Al (0.0, 0.0, 0.0) [-0.0, -0.0, -0.0], PeriodicSite: N (2.375, 2.375, 2.375) [0.5, 0.5, 0.5]]",107.23486581765529,"[Element Dy, Element Dy, Element Dy, Element Al, Element N]",True,False,-0.9900153070000002,0.0,0.0
216,mp,mp-1069273.cif,Gd3 Al1 N1,Gd3AlN,Pm-3m,5.482043,5.482043,5.482043,90.0,90.0,90.0,"(True, True, True)","[PeriodicSite: Gd (2.741, 2.741, 0.0) [0.5, 0.5, 0.0], PeriodicSite: Gd (2.741, 0.0, 2.741) [0.5, 0.0, 0.5], PeriodicSite: Gd (0.0, 2.741, 2.741) [0.0, 0.5, 0.5], PeriodicSite: Al (2.741, 2.741, 2.741) [0.5, 0.5, 0.5], PeriodicSite: N (0.0, 0.0, 0.0) [0.0, 0.0, 0.0]]",164.75071694820474,"[Element Gd, Element Gd, Element Gd, Element Al, Element N]",False,True,1.0460854490000002,1.9164974757500008,0.0
217,mp,mp-1186927.cif,Sb1 Pd1 O3,SbPdO3,Pm-3m,3.993415,3.993415,3.993415,90.0,90.0,90.0,"(True, True, True)","[PeriodicSite: Sb (1.997, 1.997, 1.997) [0.5, 0.5, 0.5], PeriodicSite: Pd (0.0, 0.0, 0.0) [0.0, 0.0, 0.0], PeriodicSite: O (1.997, 1.997, 0.0) [0.5, 0.5, 0.0], PeriodicSite: O (1.997, 0.0, 1.997) [0.5, 0.0, 0.5], PeriodicSite: O (0.0, 1.997, 1.997) [0.0, 0.5, 0.5]]",63.684440061159755,"[Element Sb, Element Pd, Element O, Element O, Element O]",False,True,-0.9125181872500001,0.5066706527500031,0.0
218,mp,mp-1207169.cif,Ca1 H3 Pd1,CaH3Pd,Pm-3m,3.70671619,3.70671619,3.70671619,90.0,90.0,90.0,"(True, True, True)","[PeriodicSite: Ca (1.853, 1.853, 1.853) [0.5, 0.5, 0.5], PeriodicSite: H (1.853, 0.0, 0.0) [0.5, -0.0, -0.0], PeriodicSite: H (0.0, 1.853, 0.0) [-0.0, 0.5, -0.0], PeriodicSite: H (0.0, 0.0, 1.853) [-0.0, -0.0, 0.5], PeriodicSite: Pd (0.0, 0.0, 0.0) [-0.0, -0.0, -0.0]]",50.92933491625866,"[Element Ca, Element H, Element H, Element H, Element Pd]",True,False,-0.514891703,0.0,0.0
219,mp,mp-1222794.cif,La1 Ga3 Pt1,LaGa3Pt,I-4m2,6.099497297922288,6.099497297922288,6.099497297922288,138.64681729003863,138.64681729003863,59.913798083627555,"(True, True, True)","[PeriodicSite: La (0.0, 0.0, 0.0) [-0.0, -0.0, -0.0], PeriodicSite: Ga (0.0, 0.0, 6.544) [0.6192, 0.6192, 0.0], PeriodicSite: Ga (0.0, 0.0, 4.025) [0.3808, 0.3808, -0.0], PeriodicSite: Ga (0.0, 2.154, 2.642) [0.75, 0.25, 0.5], PeriodicSite: Pt (2.154, 0.0, 2.642) [0.25, 0.75, 0.5]]",98.04794994805481,"[Element La, Element Ga, Element Ga, Element Ga, Element Pt]",True,False,-0.7485127374999998,0.0,0.0
220,mp,mp-1096927.cif,Cs1 Ca1 Cl3,CsCaCl3,P1,5.461912202004396,5.462038323084344,5.464458316918691,89.97426592901026,90.03123414669189,89.97633289990674,"(True, True, True)","[PeriodicSite: Cs (0.00359, 0.03784, 0.01339) [0.0006538, 0.006929, 0.002447], PeriodicSite: Ca (2.73, 2.796, 2.735) [0.4995, 0.512, 0.5005], PeriodicSite: Cl (5.461, 2.815, 2.767) [0.9996, 0.5155, 0.5067], PeriodicSite: Cl (2.719, 0.06803, 2.727) [0.4977, 0.01251, 0.4993], PeriodicSite: Cl (2.746, 2.802, 0.005204) [0.5026, 0.5131, 0.001022]]",163.02207990762003,"[Element Cs, Element Ca, Element Cl, Element Cl, Element Cl]",False,False,-2.6420579415862067,0.00029149000000039393,5.3473
221,mp,mp-1069296.cif,Eu3 In1 O1,Eu3InO,Pm-3m,5.05264029,5.05256428,5.05271312,90.0,90.0,90.0,"(True, True, True)","[PeriodicSite: Eu (0.0, 2.526, 2.526) [-0.0, 0.5, 0.5], PeriodicSite: Eu (2.526, 2.526, 0.0) [0.5, 0.5, -0.0], PeriodicSite: Eu (2.526, 0.0, 2.526) [0.5, -0.0, 0.5], PeriodicSite: In (0.0, 0.0, 0.0) [-0.0, -0.0, 0.0], PeriodicSite: O (2.526, 2.526, 2.526) [0.5, 0.5, 0.5]]",128.98965140747632,"[Element Eu, Element Eu, Element Eu, Element In, Element O]",True,True,-1.4734649777499995,0.0,0.0
222,mp,mp-1069898.cif,La1 Ge3 Os1,LaGe3Os,I4mm,5.98412187590947,5.98412187590947,5.98412187590947,136.35580944186827,136.35580944186827,63.4307253627456,"(True, True, True)","[PeriodicSite: La (0.0, 0.0, 10.16) [0.9983, 0.9983, 0.0], PeriodicSite: Ge (0.0, 0.0, 4.333) [0.4256, 0.4256, -0.0], PeriodicSite: Ge (2.224, 2.22e-16, 2.644) [0.2597, 0.7597, 0.5], PeriodicSite: Ge (2.22e-16, 2.224, 2.644) [0.7597, 0.2597, 0.5], PeriodicSite: Os (0.0, 0.0, 6.706) [0.6587, 0.6587, -0.0]]",100.75533559579927,"[Element La, Element Ge, Element Ge, Element Ge, Element Os]",True,False,-0.5244662579999997,0.0,0.0
223,mp,mp-1187736.cif,U1 Ti1 O3,UTiO3,Pm-3m,3.922603,3.922603,3.922603,90.0,90.0,90.0,"(True, True, True)","[PeriodicSite: U (0.0, 0.0, 0.0) [0.0, 0.0, 0.0], PeriodicSite: Ti (1.961, 1.961, 1.961) [0.5, 0.5, 0.5], PeriodicSite: O (1.961, 1.961, 0.0) [0.5, 0.5, 0.0], PeriodicSite: O (1.961, 0.0, 1.961) [0.5, 0.0, 0.5], PeriodicSite: O (0.0, 1.961, 1.961) [0.0, 0.5, 0.5]]",60.35636391639875,"[Element U, Element Ti, Element O, Element O, Element O]",False,True,-3.1066331499166666,0.3075792820000043,0.0
224,mp,mp-1040464.cif,Na1 Os1 O3,NaOsO3,Pm-3m,3.876674,3.876674,3.876674,90.0,90.0,90.0,"(True, True, True)","[PeriodicSite: Na (1.938, 1.938, 1.938) [0.5, 0.5, 0.5], PeriodicSite: Os (0.0, 0.0, 0.0) [0.0, 0.0, 0.0], PeriodicSite: O (1.938, 0.0, 0.0) [0.5, 0.0, 0.0], PeriodicSite: O (0.0, 1.938, 0.0) [0.0, 0.5, 0.0], PeriodicSite: O (0.0, 0.0, 1.938) [0.0, 0.0, 0.5]]",58.26098792489951,"[Element Na, Element Os, Element O, Element O, Element O]",False,False,-1.6200987025603453,0.03505463649999996,0.0