,provider,id,Full_Formula,formula,space_group,a_lattice_param,b_lattice_param,c_lattice_param,aplha_degree,beta_degree,gamma_degree,pbc,sits,volume,species_at_sites,is_stable,is_magnetic,formation_energy,energy_above_hull,band_gap
1044,mp,mp-22534.cif,Sr1 Ru1 O3,SrRuO3,P4/mmm,3.667213,3.667213,6.633684,90.0,90.0,90.0,"(True, True, True)","[PeriodicSite: Sr (0.0, 0.0, 3.317) [0.0, 0.0, 0.5], PeriodicSite: Ru (0.0, 0.0, 0.0) [0.0, 0.0, 0.0], PeriodicSite: O (0.0, 1.834, 0.0) [0.0, 0.5, 0.0], PeriodicSite: O (1.834, 0.0, 0.0) [0.5, 0.0, 0.0], PeriodicSite: O (1.834, 1.834, 3.317) [0.5, 0.5, 0.5]]",89.21277546643073,"[Element Sr, Element Ru, Element O, Element O, Element O]",False,False,-1.6812227645833324,0.5107391759999951,0.0
1045,mp,mp-975521.cif,Nd1 Mg1 O3,NdMgO3,Pm-3m,3.908802,3.908802,3.908802,90.0,90.0,90.0,"(True, True, True)","[PeriodicSite: Nd (0.0, 0.0, 0.0) [0.0, 0.0, 0.0], PeriodicSite: Mg (1.954, 1.954, 1.954) [0.5, 0.5, 0.5], PeriodicSite: O (1.954, 1.954, 0.0) [0.5, 0.5, 0.0], PeriodicSite: O (1.954, 0.0, 1.954) [0.5, 0.0, 0.5], PeriodicSite: O (0.0, 1.954, 1.954) [0.0, 0.5, 0.5]]",59.72154240182355,"[Element Nd, Element Mg, Element O, Element O, Element O]",False,True,-2.83996541875,0.27795437299999826,0.0
1046,mp,mp-982558.cif,Ho1 Ge1 O3,HoGeO3,Pm-3m,3.904923,3.904923,3.904923,90.0,90.0,90.0,"(True, True, True)","[PeriodicSite: Ho (0.0, 0.0, 0.0) [0.0, 0.0, 0.0], PeriodicSite: Ge (1.952, 1.952, 1.952) [0.5, 0.5, 0.5], PeriodicSite: O (1.952, 1.952, 0.0) [0.5, 0.5, 0.0], PeriodicSite: O (1.952, 0.0, 1.952) [0.5, 0.0, 0.5], PeriodicSite: O (0.0, 1.952, 1.952) [0.0, 0.5, 0.5]]",59.543920169682785,"[Element Ho, Element Ge, Element O, Element O, Element O]",False,False,-2.3565756762500003,0.6800517470312526,0.0
1047,mp,mp-9964.cif,Ti3 Tl1 N1,Ti3TlN,Pm-3m,4.214039,4.214039,4.214039,90.0,90.0,90.0,"(True, True, True)","[PeriodicSite: Ti (0.0, 2.107, 2.107) [0.0, 0.5, 0.5], PeriodicSite: Ti (2.107, 2.107, 0.0) [0.5, 0.5, 0.0], PeriodicSite: Ti (2.107, 0.0, 2.107) [0.5, 0.0, 0.5], PeriodicSite: Tl (0.0, 0.0, 0.0) [0.0, 0.0, 0.0], PeriodicSite: N (2.107, 2.107, 2.107) [0.5, 0.5, 0.5]]",74.83343002536053,"[Element Ti, Element Ti, Element Ti, Element Tl, Element N]",False,False,-0.8262167736666669,0.03644500666666772,0.0
1048,mp,mp-1418444.cif,Al1 Ag1 O3,AlAgO3,Pm-3m,4.003727,4.003727,4.003727,90.0,90.0,90.0,"(True, True, True)","[PeriodicSite: Al (0.0, 0.0, 0.0) [0.0, 0.0, 0.0], PeriodicSite: Ag (2.002, 2.002, 2.002) [0.5, 0.5, 0.5], PeriodicSite: O (2.002, 2.002, 0.0) [0.5, 0.5, 0.0], PeriodicSite: O (2.002, 0.0, 2.002) [0.5, 0.0, 0.5], PeriodicSite: O (0.0, 2.002, 2.002) [0.0, 0.5, 0.5]]",64.17906273811799,"[Element Al, Element Ag, Element O, Element O, Element O]",False,False,-0.25367643458333333,1.7040774346439402,0.0
1049,mp,mp-20910.cif,La1 Ge3 Ir1,LaGe3Ir,I4mm,4.447233155331726,4.447233477229966,5.950567292365648,111.9428406738789,111.94284116801185,90.00000201701575,"(True, True, True)","[PeriodicSite: La (1.999, 2.355, -0.9897) [0.5785, 0.5785, 0.1571], PeriodicSite: Ge (3.247, 1.396, 2.106) [0.8426, 0.3426, 0.6853], PeriodicSite: Ge (0.8494, 3.431, 2.106) [0.3426, 0.8426, 0.6853], PeriodicSite: Ge (0.00168, 0.00198, 0.004167) [0.000486, 0.000486, 0.0009719], PeriodicSite: Ir (0.8256, 0.9727, 2.047) [0.2388, 0.2388, 0.4775]]",99.9131842907681,"[Element La, Element Ge, Element Ge, Element Ge, Element Ir]",True,False,-0.728472996,0.0,0.0
1050,mp,mp-1431390.cif,Ca1 W1 O3,CaWO3,Cm,4.099486910460016,4.099486910460016,4.128679096565874,88.89967659662145,88.89967659662145,86.75179449834792,"(True, True, True)","[PeriodicSite: Ca (0.0, 3.337, 2.063) [0.5508, 0.5508, 0.4997], PeriodicSite: W (0.0, 5.8, 0.03153) [0.9731, 0.9731, 0.007639], PeriodicSite: O (0.0, 5.709, 2.107) [0.9486, 0.9486, 0.5106], PeriodicSite: O (-1.321, 4.198, 0.07563) [0.4693, 0.9387, 0.01832], PeriodicSite: O (1.321, 4.198, 0.07563) [0.9387, 0.4693, 0.01832]]",69.25007416783295,"[Element Ca, Element W, Element O, Element O, Element O]",False,True,-2.44527444725,0.22053635283333684,0.0
1051,mp,mp-579768.cif,Cs1 Tm1 Cl3,CsTmCl3,Pm-3m,5.312188,5.312188,5.312188,90.0,90.0,90.0,"(True, True, True)","[PeriodicSite: Cs (0.0, 0.0, 0.0) [0.0, 0.0, 0.0], PeriodicSite: Tm (2.656, 2.656, 2.656) [0.5, 0.5, 0.5], PeriodicSite: Cl (0.0, 2.656, 2.656) [0.0, 0.5, 0.5], PeriodicSite: Cl (2.656, 2.656, 0.0) [0.5, 0.5, 0.0], PeriodicSite: Cl (2.656, 0.0, 2.656) [0.5, 0.0, 0.5]]",149.90644647326462,"[Element Cs, Element Tm, Element Cl, Element Cl, Element Cl]",False,False,-2.2294860449195397,0.2015436847777785,0.0
1052,mp,mp-14099.cif,Zn1 Ag1 F3,ZnAgF3,Pm-3m,4.073079,4.073079,4.073079,90.0,90.0,90.0,"(True, True, True)","[PeriodicSite: Zn (2.037, 2.037, 2.037) [0.5, 0.5, 0.5], PeriodicSite: Ag (0.0, 0.0, 0.0) [0.0, 0.0, 0.0], PeriodicSite: F (0.0, 2.037, 2.037) [0.0, 0.5, 0.5], PeriodicSite: F (2.037, 0.0, 2.037) [0.5, 0.0, 0.5], PeriodicSite: F (2.037, 2.037, 0.0) [0.5, 0.5, 0.0]]",67.57226876423228,"[Element Zn, Element Ag, Element F, Element F, Element F]",False,False,-2.0018450968333332,0.0535718940000014,1.5852
1053,mp,mp-976283.cif,Li1 Y1 O3,LiYO3,Pm-3m,3.687005,3.687005,3.687005,90.0,90.0,90.0,"(True, True, True)","[PeriodicSite: Li (1.844, 1.844, 1.844) [0.5, 0.5, 0.5], PeriodicSite: Y (0.0, 0.0, 0.0) [0.0, 0.0, 0.0], PeriodicSite: O (1.844, 1.844, 0.0) [0.5, 0.5, 0.0], PeriodicSite: O (1.844, 0.0, 1.844) [0.5, 0.0, 0.5], PeriodicSite: O (0.0, 1.844, 1.844) [0.0, 0.5, 0.5]]",50.121167612811526,"[Element Li, Element Y, Element O, Element O, Element O]",False,True,-2.2383473712500006,0.41570530008928586,0.0
1054,mp,mp-19253.cif,Nd1 V1 O3,NdVO3,Pm-3m,3.923378,3.923378,3.923378,90.0,90.0,90.0,"(True, True, True)","[PeriodicSite: Nd (0.0, 0.0, 0.0) [0.0, 0.0, 0.0], PeriodicSite: V (1.962, 1.962, 1.962) [0.5, 0.5, 0.5], PeriodicSite: O (0.0, 1.962, 1.962) [0.0, 0.5, 0.5], PeriodicSite: O (1.962, 0.0, 1.962) [0.5, 0.0, 0.5], PeriodicSite: O (1.962, 1.962, 0.0) [0.5, 0.5, 0.0]]",60.39214532814181,"[Element Nd, Element V, Element O, Element O, Element O]",False,True,-2.9988142067500005,0.2229974875000007,0.0
1055,mp,mp-975179.cif,Rb1 Tl1 O3,RbTlO3,Pm-3m,4.465736,4.465736,4.465736,90.0,90.0,90.0,"(True, True, True)","[PeriodicSite: Rb (0.0, 0.0, 0.0) [0.0, 0.0, 0.0], PeriodicSite: Tl (2.233, 2.233, 2.233) [0.5, 0.5, 0.5], PeriodicSite: O (2.233, 2.233, 0.0) [0.5, 0.5, 0.0], PeriodicSite: O (2.233, 0.0, 2.233) [0.5, 0.0, 0.5], PeriodicSite: O (0.0, 2.233, 2.233) [0.0, 0.5, 0.5]]",89.05927106621658,"[Element Rb, Element Tl, Element O, Element O, Element O]",False,True,-0.7899573514166669,0.3222652315000074,0.0
1056,mp,mp-978851.cif,Sr1 As1 O3,SrAsO3,Pm-3m,3.974879,3.974879,3.974879,90.0,90.0,90.0,"(True, True, True)","[PeriodicSite: Sr (0.0, 0.0, 0.0) [0.0, 0.0, 0.0], PeriodicSite: As (1.987, 1.987, 1.987) [0.5, 0.5, 0.5], PeriodicSite: O (1.987, 1.987, 0.0) [0.5, 0.5, 0.0], PeriodicSite: O (1.987, 0.0, 1.987) [0.5, 0.0, 0.5], PeriodicSite: O (0.0, 1.987, 1.987) [0.0, 0.5, 0.5]]",62.80174892271716,"[Element Sr, Element As, Element O, Element O, Element O]",False,False,-2.2772467015833326,0.24564895449999824,0.0
1057,mp,mp-13819.cif,K1 Ag1 F3,KAgF3,Pm-3m,4.313309,4.313309,4.313309,90.0,90.0,90.0,"(True, True, True)","[PeriodicSite: K (2.157, 2.157, 2.157) [0.5, 0.5, 0.5], PeriodicSite: Ag (0.0, 0.0, 0.0) [0.0, 0.0, 0.0], PeriodicSite: F (0.0, 0.0, 2.157) [0.0, 0.0, 0.5], PeriodicSite: F (2.157, 0.0, 0.0) [0.5, 0.0, 0.0], PeriodicSite: F (0.0, 2.157, 0.0) [0.0, 0.5, 0.0]]",80.24753755772119,"[Element K, Element Ag, Element F, Element F, Element F]",False,False,-2.119451931433333,0.0018771420000014416,0.0
1058,mp,mp-1413511.cif,Al1 Bi1 O3,AlBiO3,Pm-3m,4.274584,4.274584,4.274584,90.0,90.0,90.0,"(True, True, True)","[PeriodicSite: Al (0.0, 0.0, 0.0) [0.0, 0.0, 0.0], PeriodicSite: Bi (2.137, 2.137, 2.137) [0.5, 0.5, 0.5], PeriodicSite: O (2.137, 2.137, 0.0) [0.5, 0.5, 0.0], PeriodicSite: O (2.137, 0.0, 2.137) [0.5, 0.0, 0.5], PeriodicSite: O (0.0, 2.137, 2.137) [0.0, 0.5, 0.5]]",78.10549111437122,"[Element Al, Element Bi, Element O, Element O, Element O]",False,False,-0.8994953672499996,1.6650228942500016,0.0
1059,mp,mp-979272.cif,Te1 Pd1 O3,TePdO3,Pm-3m,4.065242,4.065242,4.065242,90.0,90.0,90.0,"(True, True, True)","[PeriodicSite: Te (2.033, 2.033, 2.033) [0.5, 0.5, 0.5], PeriodicSite: Pd (0.0, 0.0, 0.0) [0.0, 0.0, 0.0], PeriodicSite: O (2.033, 2.033, 0.0) [0.5, 0.5, 0.0], PeriodicSite: O (2.033, 0.0, 2.033) [0.5, 0.0, 0.5], PeriodicSite: O (0.0, 2.033, 2.033) [0.0, 0.5, 0.5]]",67.18297192655213,"[Element Te, Element Pd, Element O, Element O, Element O]",False,True,-0.5932856365833338,0.6202298912499966,0.0
1060,mp,mp-973267.cif,K1 Tc1 O3,KTcO3,Pm-3m,3.87414195,3.87414195,3.87414195,90.0,90.0,90.0,"(True, True, True)","[PeriodicSite: K (0.0, 0.0, 0.0) [-0.0, -0.0, -0.0], PeriodicSite: Tc (1.937, 1.937, 1.937) [0.5, 0.5, 0.5], PeriodicSite: O (1.937, 1.937, 0.0) [0.5, 0.5, -0.0], PeriodicSite: O (1.937, 0.0, 1.937) [0.5, -0.0, 0.5], PeriodicSite: O (0.0, 1.937, 1.937) [-0.0, 0.5, 0.5]]",58.14690296217846,"[Element K, Element Tc, Element O, Element O, Element O]",True,False,-1.9874501888500007,0.0,0.0
1061,mp,mp-8370.cif,Ni3 Ge1 C1,Ni3GeC,Pm-3m,3.808709,3.808709,3.808709,90.0,90.0,90.0,"(True, True, True)","[PeriodicSite: Ni (0.0, 1.904, 1.904) [0.0, 0.5, 0.5], PeriodicSite: Ni (1.904, 1.904, 0.0) [0.5, 0.5, 0.0], PeriodicSite: Ni (1.904, 0.0, 1.904) [0.5, 0.0, 0.5], PeriodicSite: Ge (0.0, 0.0, 0.0) [0.0, 0.0, 0.0], PeriodicSite: C (1.904, 1.904, 1.904) [0.5, 0.5, 0.5]]",55.25013919271214,"[Element Ni, Element Ni, Element Ni, Element Ge, Element C]",False,False,0.08806476150000009,0.3200863424999998,0.0
1062,mp,mp-28873.cif,Cs1 Br1 O3,CsBrO3,R3m,4.639254736661108,4.639254476299543,4.639254038327179,88.72505696388099,88.7250489181458,88.72505622271734,"(True, True, True)","[PeriodicSite: Cs (0.009723, 0.009518, 0.009938) [0.002052, 0.002052, 0.002052], PeriodicSite: Br (2.224, 2.177, 2.273) [0.4693, 0.4693, 0.4693], PeriodicSite: O (0.5846, 2.419, 2.485) [0.1147, 0.5215, 0.5215], PeriodicSite: O (2.471, 2.419, 0.6387) [0.5215, 0.5215, 0.1147], PeriodicSite: O (2.431, 0.5328, 2.485) [0.5215, 0.1147, 0.5215]]",99.77612005813246,"[Element Cs, Element Br, Element O, Element O, Element O]",True,False,-1.079035388836207,0.0,4.1681
1063,mp,mp-7104.cif,Cs1 Ca1 F3,CsCaF3,Pm-3m,4.52053103,4.52053103,4.52053103,90.0,90.0,90.0,"(True, True, True)","[PeriodicSite: Cs (0.0, 0.0, 0.0) [-0.0, 0.0, 0.0], PeriodicSite: Ca (2.26, 2.26, 2.26) [0.5, 0.5, 0.5], PeriodicSite: F (0.0, 2.26, 2.26) [0.0, 0.5, 0.5], PeriodicSite: F (2.26, 0.0, 2.26) [0.5, 0.0, 0.5], PeriodicSite: F (2.26, 2.26, 0.0) [0.5, 0.5, 0.0]]",92.37795928990893,"[Element Cs, Element Ca, Element F, Element F, Element F]",True,False,-3.722858569086206,0.0,6.9005
1064,mp,mp-21116.cif,Ce1 Co1 Ge3,CeCoGe3,I4mm,4.297285198019675,4.297286285178925,5.758266039823102,111.909454411285,111.90943593534122,89.99999529923558,"(True, True, True)","[PeriodicSite: Ce (1.124, 1.324, 2.795) [0.3364, 0.3364, 0.6727], PeriodicSite: Co (0.009972, 0.01174, 0.02479) [0.002983, 0.002983, 0.005967], PeriodicSite: Ge (2.315, 0.3785, -0.00274) [0.5962, 0.09618, 0.1924], PeriodicSite: Ge (2.575, 3.031, 0.6428) [0.7704, 0.7704, 0.5408], PeriodicSite: Ge (-0.0011, 2.346, -0.00274) [0.09618, 0.5962, 0.1924]]",90.32500476614855,"[Element Ce, Element Co, Element Ge, Element Ge, Element Ge]",True,True,-0.5765595650000002,0.0,0.0
1065,mp,mp-637179.cif,Ca3 Sn1 N1,Ca3SnN,Pm-3m,5.896994,5.896994,5.896994,90.0,90.0,90.0,"(True, True, True)","[PeriodicSite: Ca (2.948, 0.0, 0.0) [0.5, 0.0, 0.0], PeriodicSite: Ca (0.0, 2.948, 0.0) [0.0, 0.5, 0.0], PeriodicSite: Ca (0.0, 0.0, 2.948) [0.0, 0.0, 0.5], PeriodicSite: Sn (0.0, 0.0, 0.0) [0.0, 0.0, 0.0], PeriodicSite: N (2.948, 2.948, 2.948) [0.5, 0.5, 0.5]]",205.0652433306749,"[Element Ca, Element Ca, Element Ca, Element Sn, Element N]",False,True,0.6712850659999997,1.4657553791590923,0.0
1066,mp,mp-20951.cif,Gd1 Co1 O3,GdCoO3,P4/mmm,3.773077,3.858134,3.773779,90.0,90.0,90.0,"(True, True, True)","[PeriodicSite: Gd (0.0, 0.0, 0.0) [0.0, 0.0, 0.0], PeriodicSite: Co (1.887, 1.929, 1.887) [0.5, 0.5, 0.5], PeriodicSite: O (1.887, 0.0, 1.887) [0.5, 0.0, 0.5], PeriodicSite: O (0.0, 1.929, 1.887) [0.0, 0.5, 0.5], PeriodicSite: O (1.887, 1.929, 0.0) [0.5, 0.5, 0.0]]",54.93503924339065,"[Element Gd, Element Co, Element O, Element O, Element O]",False,True,-2.335253174249999,0.2307191605000014,0.0
1067,mp,mp-982245.cif,Pb1 Au1 O3,PbAuO3,Pm-3m,4.148796,4.148796,4.148796,90.0,90.0,90.0,"(True, True, True)","[PeriodicSite: Pb (0.0, 0.0, 0.0) [0.0, 0.0, 0.0], PeriodicSite: Au (2.074, 2.074, 2.074) [0.5, 0.5, 0.5], PeriodicSite: O (2.074, 2.074, 0.0) [0.5, 0.5, 0.0], PeriodicSite: O (2.074, 0.0, 2.074) [0.5, 0.0, 0.5], PeriodicSite: O (0.0, 2.074, 2.074) [0.0, 0.5, 0.5]]",71.41118537597386,"[Element Pb, Element Au, Element O, Element O, Element O]",False,False,-0.6036838952499999,0.32948549833333196,0.0
1068,mp,mp-31057.cif,Ho3 In1 N1,Ho3InN,Pm-3m,4.76233324,4.76233324,4.76233324,90.0,90.0,90.0,"(True, True, True)","[PeriodicSite: Ho (2.381, 2.381, 0.0) [0.5, 0.5, -0.0], PeriodicSite: Ho (0.0, 2.381, 2.381) [-0.0, 0.5, 0.5], PeriodicSite: Ho (2.381, 0.0, 2.381) [0.5, 0.0, 0.5], PeriodicSite: In (0.0, 0.0, 0.0) [-0.0, 0.0, -0.0], PeriodicSite: N (2.381, 2.381, 2.381) [0.5, 0.5, 0.5]]",108.00885060902125,"[Element Ho, Element Ho, Element Ho, Element In, Element N]",True,False,-1.0781021549999998,0.0,0.0
1069,mp,mp-975384.cif,Rb1 Bi1 O3,RbBiO3,Pm-3m,4.259822,4.259822,4.259822,90.0,90.0,90.0,"(True, True, True)","[PeriodicSite: Rb (0.0, 0.0, 0.0) [0.0, 0.0, 0.0], PeriodicSite: Bi (2.13, 2.13, 2.13) [0.5, 0.5, 0.5], PeriodicSite: O (2.13, 2.13, 0.0) [0.5, 0.5, 0.0], PeriodicSite: O (2.13, 0.0, 2.13) [0.5, 0.0, 0.5], PeriodicSite: O (0.0, 2.13, 2.13) [0.0, 0.5, 0.5]]",77.29908558651587,"[Element Rb, Element Bi, Element O, Element O, Element O]",True,False,-1.4583009787499996,0.0,0.0
1070,mp,mp-1226580.cif,Ce1 Ga3 Ni1,CeGa3Ni,I-4m2,5.952699220492247,5.952699220492247,5.952699220492247,138.95184743772685,138.95184743772685,59.448282588805874,"(True, True, True)","[PeriodicSite: Ce (0.0, 0.0, 0.0) [0.0, 0.0, 0.0], PeriodicSite: Ga (0.0, 0.0, 6.405) [0.6195, 0.6195, 0.0], PeriodicSite: Ga (0.0, 0.0, 3.934) [0.3805, 0.3805, 0.0], PeriodicSite: Ga (0.0, 2.087, 2.585) [0.75, 0.25, 0.5], PeriodicSite: Ni (2.087, 0.0, 2.585) [0.25, 0.75, 0.5]]",90.06564028301628,"[Element Ce, Element Ga, Element Ga, Element Ga, Element Ni]",False,True,-0.5003102974999998,0.08972814199999313,0.0
1071,mp,mp-19353.cif,Pr1 Cr1 O3,PrCrO3,Pm-3m,3.886788,3.886788,3.886788,90.0,90.0,90.0,"(True, True, True)","[PeriodicSite: Pr (0.0, 0.0, 0.0) [0.0, 0.0, 0.0], PeriodicSite: Cr (1.943, 1.943, 1.943) [0.5, 0.5, 0.5], PeriodicSite: O (0.0, 1.943, 1.943) [0.0, 0.5, 0.5], PeriodicSite: O (1.943, 0.0, 1.943) [0.5, 0.0, 0.5], PeriodicSite: O (1.943, 1.943, 0.0) [0.5, 0.5, 0.0]]",58.71817644999847,"[Element Pr, Element Cr, Element O, Element O, Element O]",False,True,-3.00730947825,0.11802325950000103,1.8470000000000004
1072,mp,mp-510377.cif,Eu1 B1 Rh3,EuBRh3,Pm-3m,4.22587613,4.22581656,4.22584018,90.0,90.0,90.0,"(True, True, True)","[PeriodicSite: Eu (0.0, 0.0, 0.0) [-0.0, -0.0, -0.0], PeriodicSite: B (2.113, 2.113, 2.113) [0.5, 0.5, 0.5], PeriodicSite: Rh (0.0, 2.113, 2.113) [-0.0, 0.5, 0.5], PeriodicSite: Rh (2.113, 2.113, 0.0) [0.5, 0.5, -0.0], PeriodicSite: Rh (2.113, 0.0, 2.113) [0.5, -0.0, 0.5]]",75.46411296940764,"[Element Eu, Element B, Element Rh, Element Rh, Element Rh]",False,True,-0.4699601818333335,0.024343480000002415,0.0
1073,mp,mp-31428.cif,U1 Ga3 Ni1,UGa3Ni,I-4m2,5.993427062678664,5.993427062678664,5.993427062678664,140.33596279059554,140.33596279059554,57.343540692478165,"(True, True, True)","[PeriodicSite: U (0.0, 0.0, 0.0) [0.0, 0.0, 0.0], PeriodicSite: Ga (0.0, 0.0, 6.478) [0.616, 0.616, 0.0], PeriodicSite: Ga (0.0, 2.033, 2.629) [0.75, 0.25, 0.5], PeriodicSite: Ga (0.0, 0.0, 4.039) [0.384, 0.384, 0.0], PeriodicSite: Ni (2.033, 0.0, 2.629) [0.25, 0.75, 0.5]]",86.96598077044601,"[Element U, Element Ga, Element Ga, Element Ga, Element Ni]",False,True,-0.19218074449999917,0.1258488426666693,0.0
1074,mp,mp-19944.cif,Sr3 Pb1 O1,Sr3PbO,Pm-3m,5.17250966,5.17250966,5.17250966,90.0,90.0,90.0,"(True, True, True)","[PeriodicSite: Sr (2.586, 0.0, 2.586) [0.5, -0.0, 0.5], PeriodicSite: Sr (0.0, 2.586, 2.586) [-0.0, 0.5, 0.5], PeriodicSite: Sr (2.586, 2.586, 0.0) [0.5, 0.5, -0.0], PeriodicSite: Pb (0.0, 0.0, 0.0) [-0.0, 0.0, 0.0], PeriodicSite: O (2.586, 2.586, 2.586) [0.5, 0.5, 0.5]]",138.38975205740917,"[Element Sr, Element Sr, Element Sr, Element Pb, Element O]",True,False,-1.5880365537500005,0.0,0.0
1075,mp,mp-973613.cif,Li1 Ce1 O3,LiCeO3,Pm-3m,3.68336,3.68336,3.68336,90.0,90.0,90.0,"(True, True, True)","[PeriodicSite: Li (1.842, 1.842, 1.842) [0.5, 0.5, 0.5], PeriodicSite: Ce (0.0, 0.0, 0.0) [0.0, 0.0, 0.0], PeriodicSite: O (1.842, 1.842, 0.0) [0.5, 0.5, 0.0], PeriodicSite: O (1.842, 0.0, 1.842) [0.5, 0.0, 0.5], PeriodicSite: O (0.0, 1.842, 1.842) [0.0, 0.5, 0.5]]",49.97266406711705,"[Element Li, Element Ce, Element O, Element O, Element O]",False,True,-2.546795778916666,0.47111355300000035,0.0
1076,mp,mp-1239170.cif,Zr1 Be1 O3,ZrBeO3,Pm-3m,4.116191,4.116191,4.116191,90.0,90.0,90.0,"(True, True, True)","[PeriodicSite: Zr (0.0, 0.0, 0.0) [0.0, 0.0, 0.0], PeriodicSite: Be (2.058, 2.058, 2.058) [0.5, 0.5, 0.5], PeriodicSite: O (0.0, 2.058, 0.0) [0.0, 0.5, 0.0], PeriodicSite: O (0.0, 0.0, 2.058) [0.0, 0.0, 0.5], PeriodicSite: O (2.058, 0.0, 0.0) [0.5, 0.0, 0.0]]",69.74074080076234,"[Element Zr, Element Be, Element O, Element O, Element O]",False,False,-1.8995698002500006,1.6305065499999962,0.0
1077,mp,mp-984240.cif,Cs1 Ca1 O3,CsCaO3,Pm-3m,4.684888,4.684888,4.684888,90.0,90.0,90.0,"(True, True, True)","[PeriodicSite: Cs (0.0, 0.0, 0.0) [0.0, 0.0, 0.0], PeriodicSite: Ca (2.342, 2.342, 2.342) [0.5, 0.5, 0.5], PeriodicSite: O (2.342, 2.342, 0.0) [0.5, 0.5, 0.0], PeriodicSite: O (2.342, 0.0, 2.342) [0.5, 0.0, 0.5], PeriodicSite: O (0.0, 2.342, 2.342) [0.0, 0.5, 0.5]]",102.8247443617045,"[Element Cs, Element Ca, Element O, Element O, Element O]",False,True,-1.4863828548362066,0.42469673399999763,0.0
1078,mp,mp-754046.cif,Pr1 Tl1 O3,PrTlO3,Pm-3m,4.645081,4.645081,4.645081,90.0,90.0,90.0,"(True, True, True)","[PeriodicSite: Pr (0.0, 0.0, 0.0) [0.0, 0.0, 0.0], PeriodicSite: Tl (2.323, 2.323, 2.323) [0.5, 0.5, 0.5], PeriodicSite: O (0.0, 0.0, 2.323) [0.0, 0.0, 0.5], PeriodicSite: O (0.0, 2.323, 0.0) [0.0, 0.5, 0.0], PeriodicSite: O (2.323, 0.0, 0.0) [0.5, 0.0, 0.0]]",100.2258791905031,"[Element Pr, Element Tl, Element O, Element O, Element O]",False,True,-1.772563282916667,0.6477328663749997,0.0
1079,mp,mp-984552.cif,Be1 Zn1 O3,BeZnO3,Pm-3m,3.503176,3.503176,3.503176,90.0,90.0,90.0,"(True, True, True)","[PeriodicSite: Be (1.752, 1.752, 1.752) [0.5, 0.5, 0.5], PeriodicSite: Zn (0.0, 0.0, 0.0) [0.0, 0.0, 0.0], PeriodicSite: O (1.752, 1.752, 0.0) [0.5, 0.5, 0.0], PeriodicSite: O (1.752, 0.0, 1.752) [0.5, 0.0, 0.5], PeriodicSite: O (0.0, 1.752, 1.752) [0.0, 0.5, 0.5]]",42.991823945284224,"[Element Be, Element Zn, Element O, Element O, Element O]",False,True,-1.1931515582500005,0.7648593252500007,0.0
1080,mp,mp-866820.cif,Ca1 Sn1 S3,CaSnS3,Pm-3m,5.205274,5.205274,5.205274,90.0,90.0,90.0,"(True, True, True)","[PeriodicSite: Ca (0.0, 0.0, 0.0) [0.0, 0.0, 0.0], PeriodicSite: Sn (2.603, 2.603, 2.603) [0.5, 0.5, 0.5], PeriodicSite: S (0.0, 0.0, 2.603) [0.0, 0.0, 0.5], PeriodicSite: S (0.0, 2.603, 0.0) [0.0, 0.5, 0.0], PeriodicSite: S (2.603, 0.0, 0.0) [0.5, 0.0, 0.0]]",141.03626094188232,"[Element Ca, Element Sn, Element S, Element S, Element S]",False,True,-0.3830170408750007,1.0052084332499973,0.0