,provider,id,Full_Formula,formula,space_group,a_lattice_param,b_lattice_param,c_lattice_param,aplha_degree,beta_degree,gamma_degree,pbc,sits,volume,species_at_sites,is_stable,is_magnetic,formation_energy,energy_above_hull,band_gap
1770,mp,mp-613402.cif,Sr1 Zr1 O3,SrZrO3,Pm-3m,4.405374,4.405374,4.405374,90.0,90.0,90.0,"(True, True, True)","[PeriodicSite: Sr (2.203, 2.203, 2.203) [0.5, 0.5, 0.5], PeriodicSite: Zr (0.0, 0.0, 0.0) [0.0, 0.0, 0.0], PeriodicSite: O (2.203, 2.203, 0.0) [0.5, 0.5, 0.0], PeriodicSite: O (2.203, 0.0, 2.203) [0.5, 0.0, 0.5], PeriodicSite: O (0.0, 2.203, 2.203) [0.0, 0.5, 0.5]]",85.49650328956366,"[Element Sr, Element Zr, Element O, Element O, Element O]",False,False,-1.1457684525833336,2.5172406795000004,0.0
1771,mp,mp-13108.cif,Sr1 Hf1 O3,SrHfO3,P4mm,4.138109,4.138109,4.146736,90.0,90.0,90.0,"(True, True, True)","[PeriodicSite: Sr (2.069, 2.069, 2.135) [0.5, 0.5, 0.5148], PeriodicSite: Hf (0.0, 0.0, 4.117) [0.0, 0.0, 0.9928], PeriodicSite: O (2.069, 0.0, 4.044) [0.5, 0.0, 0.9752], PeriodicSite: O (0.0, 2.069, 4.044) [0.0, 0.5, 0.9752], PeriodicSite: O (0.0, 0.0, 2.015) [0.0, 0.0, 0.4859]]",71.00848373784919,"[Element Sr, Element Hf, Element O, Element O, Element O]",False,False,-3.780818810583333,0.0328964169999999,3.7304999999999997
1772,mp,mp-21244.cif,Cr3 Rh1 N1,Cr3RhN,Pm-3m,3.819403,3.819403,3.819403,90.0,90.0,90.0,"(True, True, True)","[PeriodicSite: Cr (1.91, 0.0, 1.91) [0.5, 0.0, 0.5], PeriodicSite: Cr (0.0, 1.91, 1.91) [0.0, 0.5, 0.5], PeriodicSite: Cr (1.91, 1.91, 0.0) [0.5, 0.5, 0.0], PeriodicSite: Rh (0.0, 0.0, 0.0) [0.0, 0.0, 0.0], PeriodicSite: N (1.91, 1.91, 1.91) [0.5, 0.5, 0.5]]",55.71683709583436,"[Element Cr, Element Cr, Element Cr, Element Rh, Element N]",False,True,-0.3059809989999991,0.026633222666667677,0.0
1773,mp,mp-3000.cif,Cr3 Ga1 N1,Cr3GaN,Pm-3m,3.829202,3.829202,3.829202,90.0,90.0,90.0,"(True, True, True)","[PeriodicSite: Cr (1.915, 0.0, 1.915) [0.5, 0.0, 0.5], PeriodicSite: Cr (0.0, 1.915, 1.915) [0.0, 0.5, 0.5], PeriodicSite: Cr (1.915, 1.915, 0.0) [0.5, 0.5, 0.0], PeriodicSite: Ga (0.0, 0.0, 0.0) [0.0, 0.0, 0.0], PeriodicSite: N (1.915, 1.915, 1.915) [0.5, 0.5, 0.5]]",56.14677696976979,"[Element Cr, Element Cr, Element Cr, Element Ga, Element N]",False,True,-0.32062658449999903,0.022125520833334633,0.0
1774,mp,mp-1432347.cif,Y1 Cu1 O3,YCuO3,Pm-3m,3.782154,3.782154,3.782154,90.0,90.0,90.0,"(True, True, True)","[PeriodicSite: Y (0.0, 0.0, 0.0) [0.0, 0.0, 0.0], PeriodicSite: Cu (1.891, 1.891, 1.891) [0.5, 0.5, 0.5], PeriodicSite: O (1.891, 1.891, 0.0) [0.5, 0.5, 0.0], PeriodicSite: O (1.891, 0.0, 1.891) [0.5, 0.0, 0.5], PeriodicSite: O (0.0, 1.891, 1.891) [0.0, 0.5, 0.5]]",54.10253626517338,"[Element Y, Element Cu, Element O, Element O, Element O]",False,False,-2.218278750583333,0.22244317270454328,0.0
1775,mp,mp-8037.cif,Ba1 Th1 O3,BaThO3,Pm-3m,4.600115,4.600115,4.600115,90.0,90.0,90.0,"(True, True, True)","[PeriodicSite: Ba (0.0, 0.0, 0.0) [0.0, 0.0, 0.0], PeriodicSite: Th (2.3, 2.3, 2.3) [0.5, 0.5, 0.5], PeriodicSite: O (0.0, 2.3, 2.3) [0.0, 0.5, 0.5], PeriodicSite: O (2.3, 0.0, 2.3) [0.5, 0.0, 0.5], PeriodicSite: O (2.3, 2.3, 0.0) [0.5, 0.5, 0.0]]",97.34330038250651,"[Element Ba, Element Th, Element O, Element O, Element O]",False,False,-3.692453227250001,0.08340609000000043,3.2033000000000005
1776,mp,mp-981313.cif,K1 Tb1 O3,KTbO3,Pm-3m,4.494844,4.494844,4.494844,90.0,90.0,90.0,"(True, True, True)","[PeriodicSite: K (0.0, 0.0, 0.0) [0.0, 0.0, 0.0], PeriodicSite: Tb (2.247, 2.247, 2.247) [0.5, 0.5, 0.5], PeriodicSite: O (2.247, 2.247, 0.0) [0.5, 0.5, 0.0], PeriodicSite: O (2.247, 0.0, 2.247) [0.5, 0.0, 0.5], PeriodicSite: O (0.0, 2.247, 2.247) [0.0, 0.5, 0.5]]",90.81213175146713,"[Element K, Element Tb, Element O, Element O, Element O]",False,True,-2.2785834678499994,0.26921392837500147,0.0
1777,mp,mp-971704.cif,Zn1 B1 O3,ZnBO3,Pm-3m,3.378806,3.378806,3.378806,90.0,90.0,90.0,"(True, True, True)","[PeriodicSite: Zn (0.0, 0.0, 0.0) [0.0, 0.0, 0.0], PeriodicSite: B (1.689, 1.689, 1.689) [0.5, 0.5, 0.5], PeriodicSite: O (1.689, 1.689, 0.0) [0.5, 0.5, 0.0], PeriodicSite: O (1.689, 0.0, 1.689) [0.5, 0.0, 0.5], PeriodicSite: O (0.0, 1.689, 1.689) [0.0, 0.5, 0.5]]",38.57356425344683,"[Element Zn, Element B, Element O, Element O, Element O]",False,False,-1.0395193730833328,1.1254540567916678,0.0
1778,mp,mp-998147.cif,Tl1 Cu1 Cl3,TlCuCl3,Pm-3m,4.82013622,4.82013622,4.82013726,90.0,90.0,90.0,"(True, True, True)","[PeriodicSite: Tl (0.0, 0.0, 0.0) [-0.0, 0.0, -0.0], PeriodicSite: Cu (2.41, 2.41, 2.41) [0.5, 0.5, 0.5], PeriodicSite: Cl (0.0, 2.41, 2.41) [-0.0, 0.5, 0.5], PeriodicSite: Cl (2.41, 0.0, 2.41) [0.5, 0.0, 0.5], PeriodicSite: Cl (2.41, 2.41, 0.0) [0.5, 0.5, -0.0]]",111.9896865839664,"[Element Tl, Element Cu, Element Cl, Element Cl, Element Cl]",False,True,-1.0633776886666666,0.017408697500000514,0.0
1779,mp,mp-19777.cif,Yb3 In1 C1,Yb3InC,Pm-3m,5.063247,5.063247,5.063247,90.0,90.0,90.0,"(True, True, True)","[PeriodicSite: Yb (2.532, 0.0, 2.532) [0.5, 0.0, 0.5], PeriodicSite: Yb (2.532, 2.532, 0.0) [0.5, 0.5, 0.0], PeriodicSite: Yb (0.0, 2.532, 2.532) [0.0, 0.5, 0.5], PeriodicSite: In (0.0, 0.0, 0.0) [0.0, 0.0, 0.0], PeriodicSite: C (2.532, 2.532, 2.532) [0.5, 0.5, 0.5]]",129.80378074470974,"[Element Yb, Element Yb, Element Yb, Element In, Element C]",False,False,0.01484405449999926,0.27987604519999953,0.0
1780,mp,mp-975382.cif,Rb1 Ca1 O3,RbCaO3,Pm-3m,4.616624,4.616624,4.616624,90.0,90.0,90.0,"(True, True, True)","[PeriodicSite: Rb (0.0, 0.0, 0.0) [0.0, 0.0, 0.0], PeriodicSite: Ca (2.308, 2.308, 2.308) [0.5, 0.5, 0.5], PeriodicSite: O (2.308, 2.308, 0.0) [0.5, 0.5, 0.0], PeriodicSite: O (2.308, 0.0, 2.308) [0.5, 0.0, 0.5], PeriodicSite: O (0.0, 2.308, 2.308) [0.0, 0.5, 0.5]]",98.39510984595381,"[Element Rb, Element Ca, Element O, Element O, Element O]",False,True,-1.48476365875,0.4217636519999983,0.0
1781,mp,mp-556424.cif,Rb1 V1 F3,RbVF3,Pm-3m,4.18167212,4.18171472,4.18157622,90.0,90.0,90.0,"(True, True, True)","[PeriodicSite: Rb (0.0, 0.0, 0.0) [0.0, -0.0, 0.0], PeriodicSite: V (2.091, 2.091, 2.091) [0.5, 0.5, 0.5], PeriodicSite: F (0.0, 2.091, 2.091) [0.0, 0.5, 0.5], PeriodicSite: F (2.091, 0.0, 2.091) [0.5, -0.0, 0.5], PeriodicSite: F (2.091, 2.091, 0.0) [0.5, 0.5, -0.0]]",73.12138287356564,"[Element Rb, Element V, Element F, Element F, Element F]",True,True,-3.0360117110000004,0.0,2.4491
1782,mp,mp-998361.cif,Ba1 Hf1 S3,BaHfS3,Cmmm,5.786308240650165,5.786308240650165,4.091538,90.0,90.0,120.00000275154484,"(True, True, True)","[PeriodicSite: Ba (0.0, 0.0, 0.0) [0.0, 0.0, 0.0], PeriodicSite: Hf (2.893, 0.0, 2.046) [0.5, 0.5, 0.5], PeriodicSite: S (2.893, 0.0, 0.0) [0.5, 0.5, 0.0], PeriodicSite: S (1.447, -2.506, 2.046) [0.5, 0.0, 0.5], PeriodicSite: S (1.447, 2.506, 2.046) [0.0, 0.5, 0.5]]",118.6370499391143,"[Element Ba, Element Hf, Element S, Element S, Element S]",False,False,-0.5694189478750005,1.5709275584999993,0.0
1783,mp,mp-8396.cif,Cs1 Eu1 F3,CsEuF3,Pm-3m,4.76988464,4.76988464,4.76988464,90.0,90.0,90.0,"(True, True, True)","[PeriodicSite: Cs (0.0, 0.0, 0.0) [-0.0, -0.0, -0.0], PeriodicSite: Eu (2.385, 2.385, 2.385) [0.5, 0.5, 0.5], PeriodicSite: F (0.0, 2.385, 2.385) [-0.0, 0.5, 0.5], PeriodicSite: F (2.385, 0.0, 2.385) [0.5, -0.0, 0.5], PeriodicSite: F (2.385, 2.385, 0.0) [0.5, 0.5, -0.0]]",108.52345886680294,"[Element Cs, Element Eu, Element F, Element F, Element F]",True,True,-3.589625913086208,0.0,0.0