,provider,id,Full_Formula,formula,space_group,a_lattice_param,b_lattice_param,c_lattice_param,aplha_degree,beta_degree,gamma_degree,pbc,sits,volume,species_at_sites,is_stable,is_magnetic,formation_energy,energy_above_hull,band_gap
486,mp,mp-1187425.cif,Th1 Si1 O3,ThSiO3,Pm-3m,3.884033,3.884033,3.884033,90.0,90.0,90.0,"(True, True, True)","[PeriodicSite: Th (0.0, 0.0, 0.0) [0.0, 0.0, 0.0], PeriodicSite: Si (1.942, 1.942, 1.942) [0.5, 0.5, 0.5], PeriodicSite: O (1.942, 1.942, 0.0) [0.5, 0.5, 0.0], PeriodicSite: O (1.942, 0.0, 1.942) [0.5, 0.0, 0.5], PeriodicSite: O (0.0, 1.942, 1.942) [0.0, 0.5, 0.5]]",58.593404576833066,"[Element Th, Element Si, Element O, Element O, Element O]",False,False,-2.4986532812499993,1.1082461215000023,0.0
487,mp,mp-1069526.cif,Ce3 In1 C1,Ce3InC,Pm-3m,5.839523,5.839523,5.839523,90.0,90.0,90.0,"(True, True, True)","[PeriodicSite: Ce (2.92, 2.92, 0.0) [0.5, 0.5, 0.0], PeriodicSite: Ce (2.92, 0.0, 2.92) [0.5, 0.0, 0.5], PeriodicSite: Ce (0.0, 2.92, 2.92) [0.0, 0.5, 0.5], PeriodicSite: In (2.92, 2.92, 2.92) [0.5, 0.5, 0.5], PeriodicSite: C (0.0, 0.0, 0.0) [0.0, 0.0, 0.0]]",199.12790287259952,"[Element Ce, Element Ce, Element Ce, Element In, Element C]",False,True,1.7817852934999998,2.104923642,0.0
488,mp,mp-1013530.cif,Sr3 Bi1 P1,Sr3BiP,Pm-3m,6.183845,6.183845,6.183845,90.0,90.0,90.0,"(True, True, True)","[PeriodicSite: Sr (0.0, 3.092, 3.092) [0.0, 0.5, 0.5], PeriodicSite: Sr (3.092, 0.0, 3.092) [0.5, 0.0, 0.5], PeriodicSite: Sr (3.092, 3.092, 0.0) [0.5, 0.5, 0.0], PeriodicSite: Bi (3.092, 3.092, 3.092) [0.5, 0.5, 0.5], PeriodicSite: P (0.0, 0.0, 0.0) [0.0, 0.0, 0.0]]",236.46985548666805,"[Element Sr, Element Sr, Element Sr, Element Bi, Element P]",False,False,-0.1594015806666665,0.808740276875,0.0
489,mp,mp-1070599.cif,Cs1 Yb1 Cl3,CsYbCl3,Pm-3m,5.34142288,5.34142288,5.34142288,90.0,90.0,90.0,"(True, True, True)","[PeriodicSite: Cs (0.0, 0.0, 0.0) [0.0, 0.0, -0.0], PeriodicSite: Yb (2.671, 2.671, 2.671) [0.5, 0.5, 0.5], PeriodicSite: Cl (2.671, 2.671, 0.0) [0.5, 0.5, 0.0], PeriodicSite: Cl (2.671, 0.0, 2.671) [0.5, 0.0, 0.5], PeriodicSite: Cl (0.0, 2.671, 2.671) [0.0, 0.5, 0.5]]",152.39505926755638,"[Element Cs, Element Yb, Element Cl, Element Cl, Element Cl]",True,False,-2.7009028315862067,0.0,5.3324
490,mp,mp-1185548.cif,Cs1 Au1 O3,CsAuO3,Pm-3m,4.289972,4.289972,4.289972,90.0,90.0,90.0,"(True, True, True)","[PeriodicSite: Cs (0.0, 0.0, 0.0) [0.0, 0.0, 0.0], PeriodicSite: Au (2.145, 2.145, 2.145) [0.5, 0.5, 0.5], PeriodicSite: O (2.145, 2.145, 0.0) [0.5, 0.5, 0.0], PeriodicSite: O (2.145, 0.0, 2.145) [0.5, 0.0, 0.5], PeriodicSite: O (0.0, 2.145, 2.145) [0.0, 0.5, 0.5]]",78.95204306569005,"[Element Cs, Element Au, Element O, Element O, Element O]",False,True,-0.4630835948362069,0.4479600652500011,0.0
491,mp,mp-1223040.cif,La1 Ga3 Ni1,LaGa3Ni,I-4m2,4.187477,4.187477,6.10570018039471,69.94541032309424,69.94541032309424,90.0,"(True, True, True)","[PeriodicSite: La (0.0, 0.0, 0.0) [0.0, 0.0, 0.0], PeriodicSite: Ga (2.094, 2.094, 1.286) [0.3795, 0.3795, 0.2409], PeriodicSite: Ga (4.187, 4.187, 4.053) [0.6205, 0.6205, 0.7591], PeriodicSite: Ga (2.094, 4.187, 2.67) [0.25, 0.75, 0.5], PeriodicSite: Ni (4.187, 2.094, 2.67) [0.75, 0.25, 0.5]]",93.63095429225571,"[Element La, Element Ga, Element Ga, Element Ga, Element Ni]",False,False,-0.5457789335000001,0.03819668966666878,0.0
492,mp,mp-1206922.cif,Ce3 Sn1 N1,Ce3SnN,Pm-3m,4.97328277,4.97332533,4.97330351,90.0,90.0,90.0,"(True, True, True)","[PeriodicSite: Ce (2.487, 0.0, 0.0) [0.5, 0.0, -0.0], PeriodicSite: Ce (0.0, 2.487, 0.0) [-0.0, 0.5, -0.0], PeriodicSite: Ce (0.0, 0.0, 2.487) [-0.0, -0.0, 0.5], PeriodicSite: Sn (2.487, 2.487, 2.487) [0.5, 0.5, 0.5], PeriodicSite: N (0.0, 0.0, 0.0) [0.0, -0.0, 0.0]]",123.00846147221452,"[Element Ce, Element Ce, Element Ce, Element Sn, Element N]",True,True,-1.0493685629999987,0.0,0.0
493,mp,mp-1186392.cif,Pa1 Be1 O3,PaBeO3,Pm-3m,3.607687,3.607687,3.607687,90.0,90.0,90.0,"(True, True, True)","[PeriodicSite: Pa (0.0, 0.0, 0.0) [0.0, 0.0, 0.0], PeriodicSite: Be (1.804, 1.804, 1.804) [0.5, 0.5, 0.5], PeriodicSite: O (1.804, 1.804, 0.0) [0.5, 0.5, 0.0], PeriodicSite: O (1.804, 0.0, 1.804) [0.5, 0.0, 0.5], PeriodicSite: O (0.0, 1.804, 1.804) [0.0, 0.5, 0.5]]",46.95550918588978,"[Element Pa, Element Be, Element O, Element O, Element O]",False,True,-3.20939531425,0.4520099250000005,0.0
494,mp,mp-1068422.cif,Eu1 Ge3 Pd1,EuGe3Pd,I4mm,5.958681488486783,5.958681488486783,5.958681488486783,135.99714543217868,135.99714543217868,63.98474845836651,"(True, True, True)","[PeriodicSite: Eu (0.0, 0.0, 0.008023) [0.0007938, 0.0007938, -0.0], PeriodicSite: Ge (2.232, -2.22e-16, 2.614) [0.2586, 0.7586, 0.5], PeriodicSite: Ge (-2.22e-16, 2.232, 2.614) [0.7586, 0.2586, 0.5], PeriodicSite: Ge (0.0, 0.0, 4.103) [0.4059, 0.4059, 0.0], PeriodicSite: Pd (0.0, 0.0, 6.561) [0.6491, 0.6491, -0.0]]",100.73293533155753,"[Element Eu, Element Ge, Element Ge, Element Ge, Element Pd]",True,True,-0.5872332309999997,0.0,0.0
495,mp,mp-1096944.cif,Cs1 Nb1 O3,CsNbO3,Pm-3m,4.170919,4.170919,4.170919,90.0,90.0,90.0,"(True, True, True)","[PeriodicSite: Cs (0.0, 0.0, 0.0) [0.0, 0.0, 0.0], PeriodicSite: Nb (2.085, 2.085, 2.085) [0.5, 0.5, 0.5], PeriodicSite: O (0.0, 2.085, 2.085) [0.0, 0.5, 0.5], PeriodicSite: O (2.085, 0.0, 2.085) [0.5, 0.0, 0.5], PeriodicSite: O (2.085, 2.085, 0.0) [0.5, 0.5, 0.0]]",72.55966476353424,"[Element Cs, Element Nb, Element O, Element O, Element O]",False,False,-2.584033872836207,0.2512933467500007,1.2761999999999998
496,mp,mp-1017632.cif,Ni3 Sn1 N1,Ni3SnN,Pm-3m,3.908518,3.908518,3.908518,90.0,90.0,90.0,"(True, True, True)","[PeriodicSite: Ni (0.0, 1.954, 1.954) [0.0, 0.5, 0.5], PeriodicSite: Ni (1.954, 1.954, 0.0) [0.5, 0.5, 0.0], PeriodicSite: Ni (1.954, 0.0, 1.954) [0.5, 0.0, 0.5], PeriodicSite: Sn (0.0, 0.0, 0.0) [0.0, 0.0, 0.0], PeriodicSite: N (1.954, 1.954, 1.954) [0.5, 0.5, 0.5]]",59.708525867025564,"[Element Ni, Element Ni, Element Ni, Element Sn, Element N]",False,False,-0.07393066799999985,0.08031614224999917,0.0
497,mp,mp-1183159.cif,Al1 Au1 O3,AlAuO3,Pm-3m,3.76133,3.76133,3.76133,90.0,90.0,90.0,"(True, True, True)","[PeriodicSite: Al (1.881, 1.881, 1.881) [0.5, 0.5, 0.5], PeriodicSite: Au (0.0, 0.0, 0.0) [0.0, 0.0, 0.0], PeriodicSite: O (1.881, 1.881, 0.0) [0.5, 0.5, 0.0], PeriodicSite: O (1.881, 0.0, 1.881) [0.5, 0.0, 0.5], PeriodicSite: O (0.0, 1.881, 1.881) [0.0, 0.5, 0.5]]",53.21380497954464,"[Element Al, Element Au, Element O, Element O, Element O]",False,True,-1.4012242692500003,0.5752346087272713,0.0
498,mp,mp-1183394.cif,Ba1 Tm1 O3,BaTmO3,Pm-3m,4.374127,4.374127,4.374127,90.0,90.0,90.0,"(True, True, True)","[PeriodicSite: Ba (0.0, 0.0, 0.0) [0.0, 0.0, 0.0], PeriodicSite: Tm (2.187, 2.187, 2.187) [0.5, 0.5, 0.5], PeriodicSite: O (2.187, 2.187, 0.0) [0.5, 0.5, 0.0], PeriodicSite: O (2.187, 0.0, 2.187) [0.5, 0.0, 0.5], PeriodicSite: O (0.0, 2.187, 2.187) [0.0, 0.5, 0.5]]",83.69011508040276,"[Element Ba, Element Tm, Element O, Element O, Element O]",False,True,-3.195801568583333,0.07247181325000351,0.0
499,mp,mp-1013557.cif,Ba3 Sb1 N1,Ba3SbN,Pm-3m,5.573581,5.573581,5.573581,90.0,90.0,90.0,"(True, True, True)","[PeriodicSite: Ba (0.0, 2.787, 2.787) [0.0, 0.5, 0.5], PeriodicSite: Ba (2.787, 0.0, 2.787) [0.5, 0.0, 0.5], PeriodicSite: Ba (2.787, 2.787, 0.0) [0.5, 0.5, 0.0], PeriodicSite: Sb (0.0, 0.0, 0.0) [0.0, 0.0, 0.0], PeriodicSite: N (2.787, 2.787, 2.787) [0.5, 0.5, 0.5]]",173.14220782832547,"[Element Ba, Element Ba, Element Ba, Element Sb, Element N]",False,False,-0.8707411329999999,0.055228377000000606,0.0
500,mp,mp-1225768.cif,Eu1 Zn1 In3,EuZnIn3,I4mm,6.783495083613904,6.783495083613904,6.783495083613904,139.3317524126694,139.3317524126694,58.86935700557405,"(True, True, True)","[PeriodicSite: Eu (0.0, 0.0, 11.77) [0.9965, 0.9965, 0.0], PeriodicSite: Zn (0.0, 0.0, 4.528) [0.3832, 0.3832, 0.0], PeriodicSite: In (2.357, 2.22e-16, 3.06) [0.259, 0.759, 0.5], PeriodicSite: In (2.22e-16, 2.357, 3.06) [0.759, 0.259, 0.5], PeriodicSite: In (0.0, 0.0, 7.118) [0.6024, 0.6024, 0.0]]",131.30828114766007,"[Element Eu, Element Zn, Element In, Element In, Element In]",False,True,-0.292748538,0.02273230290909023,0.0
501,mp,mp-1070369.cif,Nd1 Si3 Ir1,NdSi3Ir,I4mm,5.75777726703722,5.75777726703722,5.75777726703722,136.7249866999189,136.7249866999189,62.86146371985357,"(True, True, True)","[PeriodicSite: Nd (0.0, 0.0, 9.818) [0.9992, 0.9992, -0.0], PeriodicSite: Si (0.0, 0.0, 4.066) [0.4138, 0.4138, 0.0], PeriodicSite: Si (2.123, 0.0, 2.588) [0.2634, 0.7634, 0.5], PeriodicSite: Si (0.0, 2.123, 2.588) [0.7634, 0.2634, 0.5], PeriodicSite: Ir (0.0, 0.0, 6.429) [0.6542, 0.6542, 0.0]]",88.58005886046315,"[Element Nd, Element Si, Element Si, Element Si, Element Ir]",True,False,-0.8150960914999998,0.0,0.0
502,mp,mp-1183403.cif,Be1 Bi1 O3,BeBiO3,Pm-3m,3.673799,3.673799,3.673799,90.0,90.0,90.0,"(True, True, True)","[PeriodicSite: Be (1.837, 1.837, 1.837) [0.5, 0.5, 0.5], PeriodicSite: Bi (0.0, 0.0, 0.0) [0.0, 0.0, 0.0], PeriodicSite: O (1.837, 1.837, 0.0) [0.5, 0.5, 0.0], PeriodicSite: O (1.837, 0.0, 1.837) [0.5, 0.0, 0.5], PeriodicSite: O (0.0, 1.837, 1.837) [0.0, 0.5, 0.5]]",49.584527008863695,"[Element Be, Element Bi, Element O, Element O, Element O]",False,True,-1.6422116002499998,0.48546160900000146,0.0
503,mp,mp-1013705.cif,Sr3 Bi1 As1,Sr3BiAs,Pm-3m,6.196805,6.196805,6.196805,90.0,90.0,90.0,"(True, True, True)","[PeriodicSite: Sr (0.0, 3.098, 3.098) [0.0, 0.5, 0.5], PeriodicSite: Sr (3.098, 0.0, 3.098) [0.5, 0.0, 0.5], PeriodicSite: Sr (3.098, 3.098, 0.0) [0.5, 0.5, 0.0], PeriodicSite: Bi (3.098, 3.098, 3.098) [0.5, 0.5, 0.5], PeriodicSite: As (0.0, 0.0, 0.0) [0.0, 0.0, 0.0]]",237.9597424366504,"[Element Sr, Element Sr, Element Sr, Element Bi, Element As]",False,False,-0.3174320729999998,0.6848691187500004,0.0
504,mp,mp-1206138.cif,Yb3 Pb1 C1,Yb3PbC,Pm-3m,5.00552,5.00552,5.00552,90.0,90.0,90.0,"(True, True, True)","[PeriodicSite: Yb (2.503, 0.0, 0.0) [0.5, 0.0, 0.0], PeriodicSite: Yb (0.0, 2.503, 0.0) [0.0, 0.5, 0.0], PeriodicSite: Yb (0.0, 0.0, 2.503) [0.0, 0.0, 0.5], PeriodicSite: Pb (2.503, 2.503, 2.503) [0.5, 0.5, 0.5], PeriodicSite: C (0.0, 0.0, 0.0) [0.0, 0.0, 0.0]]",125.4144572241966,"[Element Yb, Element Yb, Element Yb, Element Pb, Element C]",False,True,-0.10854558349999976,0.2612659678333342,0.0
505,mp,mp-1068559.cif,La1 Co1 Si3,LaCoSi3,I4mm,5.648660140128791,5.648660140128791,5.648660140128791,136.73832699346102,136.73832699346102,62.84091213084624,"(True, True, True)","[PeriodicSite: La (0.0, 0.0, 0.0478) [0.004959, 0.004959, 0.0], PeriodicSite: Co (0.0, 0.0, 6.381) [0.6619, 0.6619, -0.0], PeriodicSite: Si (0.0, 0.0, 4.1) [0.4253, 0.4253, -0.0], PeriodicSite: Si (2.082, -2.22e-16, 2.52) [0.2614, 0.7614, 0.5], PeriodicSite: Si (-2.22e-16, 2.082, 2.52) [0.7614, 0.2614, 0.5]]",83.59886110531865,"[Element La, Element Co, Element Si, Element Si, Element Si]",True,False,-0.6414880340000003,0.0,0.0
506,mp,mp-1184023.cif,Ga1 B1 O3,GaBO3,Pm-3m,3.364261,3.364261,3.364261,90.0,90.0,90.0,"(True, True, True)","[PeriodicSite: Ga (0.0, 0.0, 0.0) [0.0, 0.0, 0.0], PeriodicSite: B (1.682, 1.682, 1.682) [0.5, 0.5, 0.5], PeriodicSite: O (1.682, 1.682, 0.0) [0.5, 0.5, 0.0], PeriodicSite: O (1.682, 0.0, 1.682) [0.5, 0.0, 0.5], PeriodicSite: O (0.0, 1.682, 1.682) [0.0, 0.5, 0.5]]",38.07755404786291,"[Element Ga, Element B, Element O, Element O, Element O]",False,False,-1.1277120285833326,1.406577837166667,0.0
507,mp,mp-1018645.cif,Y1 Pt3 C1,YPt3C,Pm-3m,4.324374,4.324374,4.324374,90.0,90.0,90.0,"(True, True, True)","[PeriodicSite: Y (0.0, 0.0, 0.0) [0.0, 0.0, 0.0], PeriodicSite: Pt (0.0, 2.162, 2.162) [0.0, 0.5, 0.5], PeriodicSite: Pt (2.162, 2.162, 0.0) [0.5, 0.5, 0.0], PeriodicSite: Pt (2.162, 0.0, 2.162) [0.5, 0.0, 0.5], PeriodicSite: C (2.162, 2.162, 2.162) [0.5, 0.5, 0.5]]",80.86670404559577,"[Element Y, Element Pt, Element Pt, Element Pt, Element C]",False,False,-0.2622463428333333,0.5129414184999996,0.0
508,mp,mp-1187416.cif,Th1 B1 O3,ThBO3,Pm-3m,3.682134,3.682134,3.682134,90.0,90.0,90.0,"(True, True, True)","[PeriodicSite: Th (0.0, 0.0, 0.0) [0.0, 0.0, 0.0], PeriodicSite: B (1.841, 1.841, 1.841) [0.5, 0.5, 0.5], PeriodicSite: O (1.841, 1.841, 0.0) [0.5, 0.5, 0.0], PeriodicSite: O (1.841, 0.0, 1.841) [0.5, 0.0, 0.5], PeriodicSite: O (0.0, 1.841, 1.841) [0.0, 0.5, 0.5]]",49.922780730192386,"[Element Th, Element B, Element O, Element O, Element O]",False,False,-2.3901214030833335,1.1899932451562538,0.0
509,mp,mp-1206767.cif,Al1 Fe3 N1,AlFe3N,Pm-3m,3.717861,3.717861,3.717861,90.0,90.0,90.0,"(True, True, True)","[PeriodicSite: Al (1.859, 1.859, 1.859) [0.5, 0.5, 0.5], PeriodicSite: Fe (1.859, 0.0, 0.0) [0.5, 0.0, 0.0], PeriodicSite: Fe (0.0, 1.859, 0.0) [0.0, 0.5, 0.0], PeriodicSite: Fe (0.0, 0.0, 1.859) [0.0, 0.0, 0.5], PeriodicSite: N (0.0, 0.0, 0.0) [0.0, 0.0, 0.0]]",51.390098037995756,"[Element Al, Element Fe, Element Fe, Element Fe, Element N]",False,True,-0.31052061699999883,0.32323818499999835,0.0
510,mp,mp-1186812.cif,Pu1 Ti1 O3,PuTiO3,Pm-3m,3.917506,3.917506,3.917506,90.0,90.0,90.0,"(True, True, True)","[PeriodicSite: Pu (0.0, 0.0, 0.0) [0.0, 0.0, 0.0], PeriodicSite: Ti (1.959, 1.959, 1.959) [0.5, 0.5, 0.5], PeriodicSite: O (1.959, 1.959, 0.0) [0.5, 0.5, 0.0], PeriodicSite: O (1.959, 0.0, 1.959) [0.5, 0.0, 0.5], PeriodicSite: O (0.0, 1.959, 1.959) [0.0, 0.5, 0.5]]",60.121389727310586,"[Element Pu, Element Ti, Element O, Element O, Element O]",False,True,-3.318607513916666,0.08042102100006687,0.0
511,mp,mp-1183194.cif,B1 Te1 O3,BTeO3,Pm-3m,3.542919,3.542919,3.542919,90.0,90.0,90.0,"(True, True, True)","[PeriodicSite: B (0.0, 0.0, 0.0) [0.0, 0.0, 0.0], PeriodicSite: Te (1.771, 1.771, 1.771) [0.5, 0.5, 0.5], PeriodicSite: O (0.0, 0.0, 1.771) [0.0, 0.0, 0.5], PeriodicSite: O (0.0, 1.771, 0.0) [0.0, 0.5, 0.0], PeriodicSite: O (1.771, 0.0, 0.0) [0.5, 0.0, 0.0]]",44.47169373442934,"[Element B, Element Te, Element O, Element O, Element O]",False,False,-0.8229278084166666,1.249479915020835,0.0
512,mp,mp-1016835.cif,Ca1 Ru1 O3,CaRuO3,Pm-3m,3.929544,3.929544,3.929544,90.0,90.0,90.0,"(True, True, True)","[PeriodicSite: Ca (0.0, 0.0, 0.0) [0.0, 0.0, 0.0], PeriodicSite: Ru (1.965, 1.965, 1.965) [0.5, 0.5, 0.5], PeriodicSite: O (1.965, 1.965, 0.0) [0.5, 0.5, 0.0], PeriodicSite: O (1.965, 0.0, 1.965) [0.5, 0.0, 0.5], PeriodicSite: O (0.0, 1.965, 1.965) [0.0, 0.5, 0.5]]",60.67733082827061,"[Element Ca, Element Ru, Element O, Element O, Element O]",False,True,-2.0622185932500003,0.1652333975000131,0.0
513,mp,mp-1016842.cif,Ti1 Hg1 O3,TiHgO3,Pm-3m,3.921312,3.921312,3.921312,90.0,90.0,90.0,"(True, True, True)","[PeriodicSite: Ti (1.961, 1.961, 1.961) [0.5, 0.5, 0.5], PeriodicSite: Hg (0.0, 0.0, 0.0) [0.0, 0.0, 0.0], PeriodicSite: O (1.961, 1.961, 0.0) [0.5, 0.5, 0.0], PeriodicSite: O (1.961, 0.0, 1.961) [0.5, 0.0, 0.5], PeriodicSite: O (0.0, 1.961, 1.961) [0.0, 0.5, 0.5]]",60.29679039566384,"[Element Ti, Element Hg, Element O, Element O, Element O]",False,False,-2.1209262449166664,0.23604129150000475,0.0
514,mp,mp-1187779.cif,U1 Re1 O3,UReO3,Pm-3m,3.981263,3.981263,3.981263,90.0,90.0,90.0,"(True, True, True)","[PeriodicSite: U (0.0, 0.0, 0.0) [0.0, 0.0, 0.0], PeriodicSite: Re (1.991, 1.991, 1.991) [0.5, 0.5, 0.5], PeriodicSite: O (1.991, 1.991, 0.0) [0.5, 0.5, 0.0], PeriodicSite: O (1.991, 0.0, 1.991) [0.5, 0.0, 0.5], PeriodicSite: O (0.0, 1.991, 1.991) [0.0, 0.5, 0.5]]",63.10483032393257,"[Element U, Element Re, Element O, Element O, Element O]",False,True,-1.8472258682499998,1.0616662035555624,0.0
515,mp,mp-1183133.cif,Al1 Ir1 O3,AlIrO3,Pm-3m,3.664087,3.664087,3.664087,90.0,90.0,90.0,"(True, True, True)","[PeriodicSite: Al (0.0, 0.0, 0.0) [0.0, 0.0, 0.0], PeriodicSite: Ir (1.832, 1.832, 1.832) [0.5, 0.5, 0.5], PeriodicSite: O (0.0, 0.0, 1.832) [0.0, 0.0, 0.5], PeriodicSite: O (0.0, 1.832, 0.0) [0.0, 0.5, 0.0], PeriodicSite: O (1.832, 0.0, 0.0) [0.5, 0.0, 0.0]]",49.1923229250551,"[Element Al, Element Ir, Element O, Element O, Element O]",False,False,-1.20151542725,1.0826480700454537,0.0
516,mp,mp-1017629.cif,Mg1 Ni1 H3,MgNiH3,Pm-3m,3.31395467,3.31395467,3.31395467,90.0,90.0,90.0,"(True, True, True)","[PeriodicSite: Mg (0.0, 0.0, 0.0) [-0.0, -0.0, -0.0], PeriodicSite: Ni (1.657, 1.657, 1.657) [0.5, 0.5, 0.5], PeriodicSite: H (1.657, 1.657, 0.0) [0.5, 0.5, -0.0], PeriodicSite: H (1.657, 0.0, 1.657) [0.5, -0.0, 0.5], PeriodicSite: H (0.0, 1.657, 1.657) [-0.0, 0.5, 0.5]]",36.39482964119878,"[Element Mg, Element Ni, Element H, Element H, Element H]",False,False,-0.2593502430000001,0.0049850632500003655,0.46699999999999964
517,mp,mp-1016819.cif,Hf1 Zn1 O3,HfZnO3,Pm-3m,4.076656,4.076656,4.076656,90.0,90.0,90.0,"(True, True, True)","[PeriodicSite: Hf (2.038, 2.038, 2.038) [0.5, 0.5, 0.5], PeriodicSite: Zn (0.0, 0.0, 0.0) [0.0, 0.0, 0.0], PeriodicSite: O (2.038, 2.038, 0.0) [0.5, 0.5, 0.0], PeriodicSite: O (2.038, 0.0, 2.038) [0.5, 0.0, 0.5], PeriodicSite: O (0.0, 2.038, 2.038) [0.0, 0.5, 0.5]]",67.7504521495989,"[Element Hf, Element Zn, Element O, Element O, Element O]",False,False,-2.4419808312500004,0.687028814499997,0.0
518,mp,mp-1013549.cif,Ba3 Bi1 N1,Ba3BiN,Pm-3m,5.61211,5.61211,5.61211,90.0,90.0,90.0,"(True, True, True)","[PeriodicSite: Ba (0.0, 2.806, 2.806) [0.0, 0.5, 0.5], PeriodicSite: Ba (2.806, 0.0, 2.806) [0.5, 0.0, 0.5], PeriodicSite: Ba (2.806, 2.806, 0.0) [0.5, 0.5, 0.0], PeriodicSite: Bi (0.0, 0.0, 0.0) [0.0, 0.0, 0.0], PeriodicSite: N (2.806, 2.806, 2.806) [0.5, 0.5, 0.5]]",176.75777433123696,"[Element Ba, Element Ba, Element Ba, Element Bi, Element N]",False,False,-0.8027557430000002,0.056357219999999764,0.0
519,mp,mp-1207214.cif,Sm1 Si3 Pt1,SmSi3Pt,I4mm,4.320298,4.320298,5.687626758444246,112.32116796258045,112.32116796258045,90.0,"(True, True, True)","[PeriodicSite: Sm (2.16, 2.16, 0.7343) [0.5765, 0.5765, 0.1531], PeriodicSite: Si (0.0, 2.16, 3.266) [0.3404, 0.8404, 0.6808], PeriodicSite: Si (2.16, 0.0, 3.266) [0.8404, 0.3404, 0.6808], PeriodicSite: Si (2.16, 2.16, 4.568) [0.9761, 0.9761, 0.9521], PeriodicSite: Pt (0.0, 0.0, 2.154) [0.2244, 0.2244, 0.4489]]",89.54639253865015,"[Element Sm, Element Si, Element Si, Element Si, Element Pt]",False,False,-0.7297589729999998,0.0188586075000039,0.0
520,mp,mp-1016871.cif,Zr1 Hg1 O3,ZrHgO3,Pm-3m,4.18501,4.18501,4.18501,90.0,90.0,90.0,"(True, True, True)","[PeriodicSite: Zr (2.093, 2.093, 2.093) [0.5, 0.5, 0.5], PeriodicSite: Hg (0.0, 0.0, 0.0) [0.0, 0.0, 0.0], PeriodicSite: O (2.093, 2.093, 0.0) [0.5, 0.5, 0.0], PeriodicSite: O (2.093, 0.0, 2.093) [0.5, 0.0, 0.5], PeriodicSite: O (0.0, 2.093, 2.093) [0.0, 0.5, 0.5]]",73.29755705300552,"[Element Zr, Element Hg, Element O, Element O, Element O]",False,False,-2.1943626162499994,0.34979274050000164,0.0
521,mp,mp-1018647.cif,Yb1 Ni1 H3,YbNiH3,Pm-3m,3.42382129,3.42382129,3.42382129,90.0,90.0,90.0,"(True, True, True)","[PeriodicSite: Yb (1.712, 1.712, 1.712) [0.5, 0.5, 0.5], PeriodicSite: Ni (0.0, 0.0, 0.0) [0.0, 0.0, 0.0], PeriodicSite: H (0.0, 0.0, 1.712) [0.0, -0.0, 0.5], PeriodicSite: H (0.0, 1.712, 0.0) [-0.0, 0.5, -0.0], PeriodicSite: H (1.712, 0.0, 0.0) [0.5, -0.0, -0.0]]",40.13592388402698,"[Element Yb, Element Ni, Element H, Element H, Element H]",True,False,-0.6689595129999993,0.0,0.0
522,mp,mp-1182592.cif,La1 Al1 O3,LaAlO3,Cmmm,4.731420223325761,6.398442000287883,4.761754570922571,89.32638110752723,119.78947950656199,91.35596216797538,"(True, True, True)","[PeriodicSite: La (0.0, 0.0, 0.0) [0.0, 0.0, 0.0], PeriodicSite: Al (-1.877, 1.832, 1.832) [0.0, 0.5, 0.0], PeriodicSite: O (1.948, 0.9523, 0.9463) [0.5, 0.0, 0.0], PeriodicSite: O (-0.9709, -1.936, 0.9895) [0.0, 0.0, 0.5], PeriodicSite: O (0.977, -0.9834, 1.936) [0.5, 0.0, 0.5]]",125.07172857582998,"[Element La, Element Al, Element O, Element O, Element O]",False,False,-0.8179839762499995,2.904972766,0.0